REMARK SMILES COc1ccc2cccc(CCNC(C)=O)c2c1
REMARK SMILES IDX 11 1 10 2 3 3 18 4 4 5 17 6 5 7 6 8 9 9 7 10 8 11 2 12 1 13
REMARK SMILES IDX 12 14 13 15 14 16 16 17 15 19
REMARK H PARENT 13 18
ROOT
ATOM      1  C   UNL     1       1.441   1.129  -0.644  1.00  0.00     0.057 C 
ENDROOT
BRANCH   1   2
ATOM      2  C   UNL     1       0.027   1.515  -0.338  1.00  0.00    -0.038 A 
ATOM      3  C   UNL     1      -1.736  -1.755  -0.091  1.00  0.00     0.119 A 
ATOM      4  C   UNL     1      -0.718  -0.817  -0.268  1.00  0.00     0.055 A 
ATOM      5  C   UNL     1      -3.032  -1.332   0.191  1.00  0.00     0.047 A 
ATOM      6  C   UNL     1      -0.985   0.557  -0.164  1.00  0.00    -0.011 A 
ATOM      7  C   UNL     1      -3.314   0.030   0.298  1.00  0.00     0.012 A 
ATOM      8  C   UNL     1      -2.302   0.988   0.124  1.00  0.00    -0.018 A 
ATOM      9  C   UNL     1      -0.255   2.877  -0.231  1.00  0.00     0.004 A 
ATOM     10  C   UNL     1      -2.568   2.362   0.228  1.00  0.00     0.009 A 
ATOM     11  C   UNL     1      -1.550   3.300   0.052  1.00  0.00     0.001 A 
BRANCH   3  12
ATOM     12  O   UNL     1      -1.463  -3.084  -0.197  1.00  0.00    -0.497 OA
ATOM     13  C   UNL     1      -2.550  -3.988  -0.007  1.00  0.00     0.278 C 
ENDBRANCH   3  12
ENDBRANCH   1   2
BRANCH   1  14
ATOM     14  C   UNL     1       2.299   0.924   0.608  1.00  0.00     0.120 C 
BRANCH  14  15
ATOM     15  N   UNL     1       3.658   0.576   0.290  1.00  0.00    -0.356 N 
ATOM     16  C   UNL     1       4.095  -0.732   0.132  1.00  0.00     0.216 C 
ATOM     17  O   UNL     1       3.398  -1.738   0.240  1.00  0.00    -0.275 OA
ATOM     18  H   UNL     1       4.321   1.335   0.160  1.00  0.00     0.163 HD
ATOM     19  C   UNL     1       5.556  -0.812  -0.222  1.00  0.00     0.114 C 
ENDBRANCH  14  15
ENDBRANCH   1  14
TORSDOF 4
