REMARK SMILES C[C@@H](N)C(=O)OC(C)(C)Cc1ccc(Cl)cc1
REMARK SMILES IDX 6 1 7 2 8 3 9 4 10 5 11 6 14 7 13 8 16 9 12 10 17 11 15 12
REMARK SMILES IDX 4 13 5 14 2 15 1 16 3 17
REMARK H PARENT 3 18 3 19
ROOT
ATOM      1  O   UNL     1      -2.176   0.810   0.434  1.00  0.00    -0.458 OA
ENDROOT
BRANCH   1   2
ATOM      2  C   UNL     1      -0.781   0.675   0.723  1.00  0.00     0.111 C 
ATOM      3  C   UNL     1      -0.240   2.076   1.034  1.00  0.00     0.057 C 
ATOM      4  C   UNL     1      -0.619  -0.226   1.951  1.00  0.00     0.057 C 
BRANCH   2   5
ATOM      5  C   UNL     1      -0.066   0.122  -0.530  1.00  0.00     0.083 C 
BRANCH   5   6
ATOM      6  C   UNL     1       1.435  -0.010  -0.412  1.00  0.00    -0.044 A 
ATOM      7  C   UNL     1       4.186  -0.252  -0.196  1.00  0.00     0.041 A 
ATOM      8  C   UNL     1       3.625   0.933  -0.672  1.00  0.00     0.021 A 
ATOM      9  C   UNL     1       3.361  -1.315   0.170  1.00  0.00     0.021 A 
ATOM     10  C   UNL     1       2.240   1.055  -0.780  1.00  0.00     0.005 A 
ATOM     11  C   UNL     1       1.976  -1.194   0.062  1.00  0.00     0.005 A 
ATOM     12 CL   UNL     1       5.895  -0.403  -0.064  1.00  0.00    -0.084 Cl
ENDBRANCH   5   6
ENDBRANCH   2   5
ENDBRANCH   1   2
BRANCH   1  13
ATOM     13  C   UNL     1      -2.831  -0.352   0.131  1.00  0.00     0.323 C 
ATOM     14  O   UNL     1      -2.322  -1.464   0.090  1.00  0.00    -0.250 OA
BRANCH  13  15
ATOM     15  C   UNL     1      -4.289  -0.042  -0.155  1.00  0.00     0.159 C 
ATOM     16  C   UNL     1      -4.416   0.888  -1.354  1.00  0.00     0.037 C 
BRANCH  15  17
ATOM     17  N   UNL     1      -4.977  -1.302  -0.431  1.00  0.00    -0.319 NA
ATOM     18  H   UNL     1      -4.611  -1.715  -1.289  1.00  0.00     0.119 HD
ATOM     19  H   UNL     1      -5.964  -1.118  -0.611  1.00  0.00     0.119 HD
ENDBRANCH  15  17
ENDBRANCH  13  15
ENDBRANCH   1  13
TORSDOF 6
