REMARK SMILES Clc1ccc2c(c1)C(N1CCNCC1)=Nc1ccccc1O2
REMARK SMILES IDX 1 1 22 2 9 3 12 4 15 5 10 6 14 7 11 8 13 9 8 10 6 11 5 12
REMARK SMILES IDX 16 13 7 14 21 15 4 16 2 17 3 18 17 19 20 20 18 21 19 22
REMARK H PARENT 12 23
ROOT
ATOM      1 CL   UNL     1      -2.380  -3.767   1.482  1.00  0.00    -0.084 Cl
ATOM      2  O   UNL     1       1.777  -0.733  -1.359  1.00  0.00    -0.454 OA
ATOM      3  N   UNL     1      -1.661   1.248  -0.322  1.00  0.00    -0.353 N 
ATOM      4  N   UNL     1      -4.426   1.919  -0.101  1.00  0.00    -0.313 NA
ATOM      5  N   UNL     1       0.593   1.593  -0.098  1.00  0.00    -0.227 NA
ATOM      6  C   UNL     1      -2.051   2.560   0.190  1.00  0.00     0.133 C 
ATOM      7  C   UNL     1      -2.638   0.597  -1.194  1.00  0.00     0.133 C 
ATOM      8  C   UNL     1      -3.439   2.485   0.823  1.00  0.00     0.102 C 
ATOM      9  C   UNL     1      -4.010   0.578  -0.522  1.00  0.00     0.102 C 
ATOM     10  C   UNL     1      -0.411   0.758  -0.159  1.00  0.00     0.140 C 
ATOM     11  C   UNL     1      -0.277  -0.726  -0.065  1.00  0.00     0.061 A 
ATOM     12  C   UNL     1       0.784  -1.396  -0.679  1.00  0.00     0.138 A 
ATOM     13  C   UNL     1       1.928   1.205   0.081  1.00  0.00     0.108 A 
ATOM     14  C   UNL     1      -1.255  -1.468   0.609  1.00  0.00     0.036 A 
ATOM     15  C   UNL     1       2.512   0.104  -0.555  1.00  0.00     0.153 A 
ATOM     16  C   UNL     1       0.852  -2.792  -0.657  1.00  0.00     0.049 A 
ATOM     17  C   UNL     1      -1.175  -2.862   0.650  1.00  0.00     0.042 A 
ATOM     18  C   UNL     1      -0.126  -3.523   0.013  1.00  0.00     0.024 A 
ATOM     19  C   UNL     1       2.748   2.018   0.875  1.00  0.00     0.032 A 
ATOM     20  C   UNL     1       3.876  -0.173  -0.422  1.00  0.00     0.049 A 
ATOM     21  C   UNL     1       4.107   1.735   1.031  1.00  0.00     0.003 A 
ATOM     22  C   UNL     1       4.672   0.641   0.379  1.00  0.00     0.004 A 
ATOM     23  H   UNL     1      -5.331   1.860   0.366  1.00  0.00     0.122 HD
ENDROOT
TORSDOF 0
