REMARK SMILES CN(C)CCCN1c2ccccc2CCc2ccc(Cl)cc21
REMARK SMILES IDX 6 1 7 2 22 3 19 4 21 5 18 6 17 7 16 8 20 9 15 10 8 12 13 13
REMARK SMILES IDX 9 14 12 15 10 16 11 17 14 18 5 20 4 21 2 22 1 23 3 24
REMARK H PARENT
REMARK Flexibility Score:   28.900
ROOT
ATOM      1  C   UNL     1      -0.091   0.719  -1.879  1.00  0.00     0.124 C 
ENDROOT
BRANCH   1   2
ATOM      2  N   UNL     1      -0.209  -0.263  -0.788  1.00  0.00    -0.341 N 
BRANCH   2   3
ATOM      3  C   UNL     1       0.994  -0.750  -0.206  1.00  0.00     0.046 A 
ATOM      4  C   UNL     1       3.417  -1.187  -0.475  1.00  0.00     0.043 A 
ATOM      5  C   UNL     1       2.203  -0.682  -0.949  1.00  0.00     0.047 A 
ATOM      6  C   UNL     1       3.469  -1.795   0.764  1.00  0.00     0.021 A 
ATOM      7  C   UNL     1       2.308  -1.883   1.524  1.00  0.00     0.007 A 
ATOM      8  C   UNL     1       1.072  -1.358   1.071  1.00  0.00    -0.024 A 
ATOM      9 CL   UNL     1       4.838  -1.054  -1.436  1.00  0.00    -0.084 Cl
BRANCH   8  10
ATOM     10  C   UNL     1      -0.071  -1.520   2.050  1.00  0.00     0.042 CG0
ATOM     11  G   UNL     1      -1.204  -0.513   1.933  1.00  0.00     0.000 G0
ENDBRANCH   8  10
ENDBRANCH   2   3
BRANCH   2  12
ATOM     12  C   UNL     1      -1.537  -0.707  -0.558  1.00  0.00     0.044 A 
ATOM     13  C   UNL     1      -2.056  -0.840   0.741  1.00  0.00    -0.024 A 
ATOM     14  C   UNL     1      -2.388  -1.021  -1.640  1.00  0.00     0.026 A 
ATOM     15  C   UNL     1      -3.381  -1.270   0.936  1.00  0.00     0.006 A 
ATOM     16  C   UNL     1      -3.702  -1.449  -1.439  1.00  0.00     0.002 A 
ATOM     17  C   UNL     1      -4.199  -1.573  -0.149  1.00  0.00     0.000 A 
BRANCH  13  18
ATOM     18  C   UNL     1      -1.204  -0.513   1.933  1.00  0.00     0.042 CG0
ATOM     19  G   UNL     1      -0.071  -1.520   2.050  1.00  0.00     0.000 G0
ENDBRANCH  13  18
ENDBRANCH   2  12
ENDBRANCH   1   2
BRANCH   1  20
ATOM     20  C   UNL     1       0.415   2.059  -1.347  1.00  0.00     0.037 C 
BRANCH  20  21
ATOM     21  C   UNL     1      -0.455   2.679  -0.249  1.00  0.00     0.085 C 
BRANCH  21  22
ATOM     22  N   UNL     1       0.053   3.975   0.182  1.00  0.00    -0.309 NA
ATOM     23  C   UNL     1       1.386   3.837   0.772  1.00  0.00     0.104 C 
ATOM     24  C   UNL     1      -0.863   4.596   1.141  1.00  0.00     0.104 C 
ENDBRANCH  21  22
ENDBRANCH  20  21
ENDBRANCH   1  20
TORSDOF 4
