REMARK SMILES CN(C)[C@@H](CCOc1cccc2ccccc12)c1ccccc1
REMARK SMILES IDX 5 1 6 2 7 3 8 4 17 5 9 6 12 7 16 8 10 9 11 10 13 11 15 12
REMARK SMILES IDX 14 13 4 14 2 15 1 16 3 17 18 18 19 19 23 20 20 21 22 22
REMARK SMILES IDX 21 23
REMARK H PARENT
ROOT
ATOM      1  C   UNL     1       1.188   1.065   1.033  1.00  0.00     0.065 C 
ENDROOT
BRANCH   1   2
ATOM      2  C   UNL     1       0.408  -0.093   0.413  1.00  0.00     0.231 C 
BRANCH   2   3
ATOM      3  O   UNL     1      -0.796  -0.306   1.143  1.00  0.00    -0.493 OA
BRANCH   3   4
ATOM      4  C   UNL     1      -1.857  -0.815   0.450  1.00  0.00     0.127 A 
ATOM      5  C   UNL     1      -3.068  -0.112   0.347  1.00  0.00     0.024 A 
ATOM      6  C   UNL     1      -1.704  -2.062  -0.157  1.00  0.00     0.047 A 
ATOM      7  C   UNL     1      -4.140  -0.681  -0.381  1.00  0.00    -0.015 A 
ATOM      8  C   UNL     1      -3.240   1.145   0.952  1.00  0.00     0.012 A 
ATOM      9  C   UNL     1      -2.758  -2.622  -0.874  1.00  0.00     0.004 A 
ATOM     10  C   UNL     1      -3.968  -1.937  -0.986  1.00  0.00     0.009 A 
ATOM     11  C   UNL     1      -5.351   0.022  -0.484  1.00  0.00     0.009 A 
ATOM     12  C   UNL     1      -4.450   1.829   0.840  1.00  0.00     0.001 A 
ATOM     13  C   UNL     1      -5.504   1.269   0.123  1.00  0.00     0.001 A 
ENDBRANCH   3   4
ENDBRANCH   2   3
ENDBRANCH   1   2
BRANCH   1  14
ATOM     14  C   UNL     1       2.498   1.381   0.285  1.00  0.00     0.089 C 
BRANCH  14  15
ATOM     15  N   UNL     1       2.171   1.838  -1.072  1.00  0.00    -0.302 NA
ATOM     16  C   UNL     1       3.383   2.262  -1.768  1.00  0.00     0.105 C 
ATOM     17  C   UNL     1       1.199   2.926  -1.018  1.00  0.00     0.105 C 
ENDBRANCH  14  15
BRANCH  14  18
ATOM     18  C   UNL     1       3.460   0.209   0.237  1.00  0.00    -0.031 A 
ATOM     19  C   UNL     1       4.388   0.059   1.250  1.00  0.00     0.005 A 
ATOM     20  C   UNL     1       3.384  -0.679  -0.820  1.00  0.00     0.005 A 
ATOM     21  C   UNL     1       5.273  -1.018   1.205  1.00  0.00     0.000 A 
ATOM     22  C   UNL     1       4.269  -1.757  -0.864  1.00  0.00     0.000 A 
ATOM     23  C   UNL     1       5.214  -1.926   0.148  1.00  0.00     0.000 A 
ENDBRANCH  14  18
ENDBRANCH   1  14
TORSDOF 6
