REMARK SMILES CNCCCN1c2ccccc2CCc2ccccc21
REMARK SMILES IDX 5 1 6 2 7 3 12 4 8 5 11 6 9 7 10 8 13 9 20 11 15 12 19 13
REMARK SMILES IDX 16 14 18 15 17 16 14 17 4 19 3 20 2 21 1 22
REMARK H PARENT 2 23
REMARK Flexibility Score:   28.900
ROOT
ATOM      1  C   UNL     1       1.439  -0.587  -0.549  1.00  0.00     0.124 C 
ENDROOT
BRANCH   1   2
ATOM      2  N   UNL     1       0.074  -0.087  -0.316  1.00  0.00    -0.341 N 
BRANCH   2   3
ATOM      3  C   UNL     1      -0.027   1.329  -0.324  1.00  0.00     0.044 A 
ATOM      4  C   UNL     1      -0.789   2.019   0.632  1.00  0.00    -0.024 A 
ATOM      5  C   UNL     1       0.652   2.093  -1.298  1.00  0.00     0.026 A 
ATOM      6  C   UNL     1      -0.860   3.423   0.606  1.00  0.00     0.006 A 
ATOM      7  C   UNL     1       0.577   3.487  -1.319  1.00  0.00     0.002 A 
ATOM      8  C   UNL     1      -0.180   4.153  -0.365  1.00  0.00     0.000 A 
BRANCH   4   9
ATOM      9  C   UNL     1      -1.528   1.264   1.699  1.00  0.00     0.042 CG0
ATOM     10  G   UNL     1      -2.651   0.453   1.074  1.00  0.00     0.000 G0
ENDBRANCH   4   9
ENDBRANCH   2   3
BRANCH   2  11
ATOM     11  C   UNL     1      -0.978  -1.042  -0.260  1.00  0.00     0.044 A 
ATOM     12  C   UNL     1      -2.239  -0.805   0.338  1.00  0.00    -0.024 A 
ATOM     13  C   UNL     1      -0.799  -2.310  -0.876  1.00  0.00     0.026 A 
ATOM     14  C   UNL     1      -3.247  -1.799   0.269  1.00  0.00     0.006 A 
ATOM     15  C   UNL     1      -1.800  -3.285  -0.916  1.00  0.00     0.002 A 
ATOM     16  C   UNL     1      -3.031  -3.026  -0.345  1.00  0.00     0.000 A 
BRANCH  12  17
ATOM     17  C   UNL     1      -2.651   0.453   1.074  1.00  0.00     0.042 CG0
ATOM     18  G   UNL     1      -1.528   1.264   1.699  1.00  0.00     0.000 G0
ENDBRANCH  12  17
ENDBRANCH   2  11
ENDBRANCH   1   2
BRANCH   1  19
ATOM     19  C   UNL     1       1.949  -1.352   0.672  1.00  0.00     0.037 C 
BRANCH  19  20
ATOM     20  C   UNL     1       3.387  -1.866   0.546  1.00  0.00     0.082 C 
BRANCH  20  21
ATOM     21  N   UNL     1       4.343  -0.777   0.392  1.00  0.00    -0.320 NA
ATOM     22  C   UNL     1       5.707  -1.286   0.339  1.00  0.00     0.101 C 
ATOM     23  H   UNL     1       4.255  -0.130   1.175  1.00  0.00     0.122 HD
ENDBRANCH  20  21
ENDBRANCH  19  20
ENDBRANCH   1  19
TORSDOF 4
