REMARK SMILES CN(C)CCC=C1c2ccccc2CSc2ccccc21
REMARK SMILES IDX 4 1 5 2 6 3 15 4 14 5 16 6 13 7 21 8 17 9 8 10 12 11 7 12
REMARK SMILES IDX 20 13 18 14 9 15 11 16 19 17 10 18 2 19 1 20 3 21
REMARK H PARENT
ROOT
ATOM      1  C   UNL     1      -3.021   1.559  -0.096  1.00  0.00     0.088 C 
ENDROOT
BRANCH   1   2
ATOM      2  C   UNL     1      -2.042   0.741   0.746  1.00  0.00     0.043 C 
BRANCH   2   3
ATOM      3  C   UNL     1      -0.634   1.193   0.520  1.00  0.00    -0.016 C 
ATOM      4  S   UNL     1       2.974  -1.364   1.216  1.00  0.00    -0.121 SA
ATOM      5  C   UNL     1       1.271  -1.742   1.720  1.00  0.00     0.111 C 
ATOM      6  C   UNL     1       2.873   0.236   0.391  1.00  0.00     0.015 A 
ATOM      7  C   UNL     1       0.391  -2.036   0.537  1.00  0.00    -0.030 A 
ATOM      8  C   UNL     1       1.726   0.918  -0.074  1.00  0.00    -0.004 A 
ATOM      9  C   UNL     1       4.139   0.831   0.193  1.00  0.00     0.016 A 
ATOM     10  C   UNL     1      -0.053  -0.989  -0.287  1.00  0.00    -0.014 A 
ATOM     11  C   UNL     1       0.024  -3.354   0.229  1.00  0.00     0.005 A 
ATOM     12  C   UNL     1       0.337   0.398   0.031  1.00  0.00    -0.014 C 
ATOM     13  C   UNL     1       1.898   2.156  -0.735  1.00  0.00     0.010 A 
ATOM     14  C   UNL     1       4.281   2.062  -0.447  1.00  0.00     0.001 A 
ATOM     15  C   UNL     1      -0.859  -1.269  -1.401  1.00  0.00     0.009 A 
ATOM     16  C   UNL     1      -0.779  -3.625  -0.879  1.00  0.00     0.000 A 
ATOM     17  C   UNL     1       3.158   2.724  -0.915  1.00  0.00     0.001 A 
ATOM     18  C   UNL     1      -1.220  -2.584  -1.693  1.00  0.00     0.001 A 
ENDBRANCH   2   3
ENDBRANCH   1   2
BRANCH   1  19
ATOM     19  N   UNL     1      -4.386   1.092   0.121  1.00  0.00    -0.309 NA
ATOM     20  C   UNL     1      -5.325   1.846  -0.711  1.00  0.00     0.104 C 
ATOM     21  C   UNL     1      -4.752   1.207   1.533  1.00  0.00     0.104 C 
ENDBRANCH   1  19
TORSDOF 3
