REMARK SMILES CN(C)CCC=C1c2ccccc2COc2ccccc21
REMARK SMILES IDX 4 1 5 2 6 3 15 4 14 5 16 6 13 7 21 8 17 9 8 10 12 11 7 12
REMARK SMILES IDX 20 13 18 14 9 15 11 16 19 17 10 18 2 19 1 20 3 21
REMARK H PARENT
ROOT
ATOM      1  C   UNL     1       3.118   1.609   0.502  1.00  0.00     0.088 C 
ENDROOT
BRANCH   1   2
ATOM      2  C   UNL     1       2.204   0.660  -0.272  1.00  0.00     0.043 C 
BRANCH   2   3
ATOM      3  C   UNL     1       0.797   1.166  -0.289  1.00  0.00    -0.016 C 
ATOM      4  O   UNL     1      -2.662  -0.832   1.202  1.00  0.00    -0.488 OA
ATOM      5  C   UNL     1      -1.406  -1.256   1.725  1.00  0.00     0.266 C 
ATOM      6  C   UNL     1      -2.705   0.343   0.492  1.00  0.00     0.127 A 
ATOM      7  C   UNL     1      -0.573  -1.896   0.650  1.00  0.00    -0.003 A 
ATOM      8  C   UNL     1      -1.651   0.954  -0.219  1.00  0.00     0.024 A 
ATOM      9  C   UNL     1      -3.988   0.919   0.483  1.00  0.00     0.047 A 
ATOM     10  C   UNL     1      -0.025  -1.093  -0.364  1.00  0.00    -0.011 A 
ATOM     11  C   UNL     1      -0.352  -3.279   0.635  1.00  0.00     0.008 A 
ATOM     12  C   UNL     1      -0.285   0.365  -0.332  1.00  0.00    -0.011 C 
ATOM     13  C   UNL     1      -1.940   2.140  -0.928  1.00  0.00     0.012 A 
ATOM     14  C   UNL     1      -4.239   2.101  -0.208  1.00  0.00     0.004 A 
ATOM     15  C   UNL     1       0.732  -1.687  -1.384  1.00  0.00     0.009 A 
ATOM     16  C   UNL     1       0.409  -3.859  -0.380  1.00  0.00     0.000 A 
ATOM     17  C   UNL     1      -3.214   2.712  -0.915  1.00  0.00     0.001 A 
ATOM     18  C   UNL     1       0.949  -3.065  -1.388  1.00  0.00     0.001 A 
ENDBRANCH   2   3
ENDBRANCH   1   2
BRANCH   1  19
ATOM     19  N   UNL     1       4.481   1.091   0.526  1.00  0.00    -0.309 NA
ATOM     20  C   UNL     1       5.355   1.975   1.298  1.00  0.00     0.104 C 
ATOM     21  C   UNL     1       4.995   0.932  -0.836  1.00  0.00     0.104 C 
ENDBRANCH   1  19
TORSDOF 3
