REMARK SMILES CNCC[C@H](Oc1cccc2ccccc12)c1cccs1
REMARK SMILES IDX 4 1 5 2 17 3 21 4 20 5 18 6 19 7 6 8 7 9 16 10 8 11 11 12
REMARK SMILES IDX 15 13 9 14 10 15 12 16 14 17 13 18 3 19 2 20 1 21
REMARK H PARENT 2 22
ROOT
ATOM      1  C   UNL     1      -2.393   1.128  -0.665  1.00  0.00     0.066 C 
ENDROOT
BRANCH   1   2
ATOM      2  C   UNL     1      -1.275   0.281  -0.044  1.00  0.00     0.215 C 
BRANCH   2   3
ATOM      3  C   UNL     1      -1.637  -1.178   0.119  1.00  0.00     0.045 A 
ATOM      4  S   UNL     1      -1.537  -1.870   1.665  1.00  0.00    -0.145 S 
ATOM      5  C   UNL     1      -2.056  -3.382   1.050  1.00  0.00     0.065 A 
ATOM      6  C   UNL     1      -2.046  -2.039  -0.848  1.00  0.00     0.019 A 
ATOM      7  C   UNL     1      -2.293  -3.334  -0.306  1.00  0.00     0.012 A 
ENDBRANCH   2   3
BRANCH   2   8
ATOM      8  O   UNL     1      -0.137   0.349  -0.899  1.00  0.00    -0.484 OA
BRANCH   8   9
ATOM      9  C   UNL     1       0.994   0.911  -0.378  1.00  0.00     0.128 A 
ATOM     10  C   UNL     1       2.192   0.185  -0.282  1.00  0.00     0.024 A 
ATOM     11  C   UNL     1       0.925   2.234   0.060  1.00  0.00     0.047 A 
ATOM     12  C   UNL     1       3.338   0.811   0.265  1.00  0.00    -0.015 A 
ATOM     13  C   UNL     1       2.280  -1.147  -0.718  1.00  0.00     0.012 A 
ATOM     14  C   UNL     1       2.052   2.849   0.598  1.00  0.00     0.004 A 
ATOM     15  C   UNL     1       3.251   2.143   0.701  1.00  0.00     0.009 A 
ATOM     16  C   UNL     1       4.537   0.085   0.361  1.00  0.00     0.009 A 
ATOM     17  C   UNL     1       3.479  -1.853  -0.615  1.00  0.00     0.001 A 
ATOM     18  C   UNL     1       4.605  -1.238  -0.076  1.00  0.00     0.001 A 
ENDBRANCH   8   9
ENDBRANCH   2   8
ENDBRANCH   1   2
BRANCH   1  19
ATOM     19  C   UNL     1      -3.666   1.150   0.182  1.00  0.00     0.085 C 
BRANCH  19  20
ATOM     20  N   UNL     1      -4.690   1.959  -0.470  1.00  0.00    -0.320 NA
ATOM     21  C   UNL     1      -5.923   1.957   0.304  1.00  0.00     0.101 C 
ATOM     22  H   UNL     1      -4.877   1.589  -1.402  1.00  0.00     0.122 HD
ENDBRANCH  19  20
ENDBRANCH   1  19
TORSDOF 6
