REMARK SMILES CN(C)CCC[C@@]1(c2ccc(F)cc2)OCc2cc(C#N)ccc21
REMARK SMILES IDX 6 1 7 2 15 3 24 4 16 5 17 6 23 7 18 8 22 9 19 10 20 11 21 12
REMARK SMILES IDX 8 13 11 14 10 15 13 16 9 17 14 18 12 19 5 20 4 21 2 22 1 23
REMARK SMILES IDX 3 24
REMARK H PARENT
ROOT
ATOM      1  C   UNL     1      -0.938  -1.212  -0.566  1.00  0.00     0.047 C 
ENDROOT
BRANCH   1   2
ATOM      2  C   UNL     1      -0.069  -0.235   0.217  1.00  0.00     0.119 C 
ATOM      3  O   UNL     1      -0.114  -0.606   1.632  1.00  0.00    -0.361 OA
ATOM      4  C   UNL     1       1.387  -0.336  -0.135  1.00  0.00    -0.006 A 
ATOM      5  C   UNL     1       1.173  -1.095   2.076  1.00  0.00     0.198 C 
ATOM      6  C   UNL     1       2.097  -0.828   0.951  1.00  0.00    -0.015 A 
ATOM      7  C   UNL     1       2.030  -0.028  -1.325  1.00  0.00     0.009 A 
ATOM      8  C   UNL     1       3.466  -1.024   0.888  1.00  0.00     0.026 A 
ATOM      9  C   UNL     1       3.411  -0.216  -1.403  1.00  0.00     0.020 A 
ATOM     10  C   UNL     1       4.125  -0.712  -0.302  1.00  0.00     0.052 A 
ATOM     11  C   UNL     1       5.538  -0.900  -0.401  1.00  0.00     0.099 C 
ATOM     12  N   UNL     1       6.687  -1.054  -0.482  1.00  0.00    -0.192 NA
BRANCH   2  13
ATOM     13  C   UNL     1      -0.597   1.157   0.114  1.00  0.00    -0.012 A 
ATOM     14  C   UNL     1      -1.583   3.758  -0.077  1.00  0.00     0.123 A 
ATOM     15  C   UNL     1      -1.630   2.912  -1.184  1.00  0.00     0.039 A 
ATOM     16  C   UNL     1      -1.043   3.304   1.126  1.00  0.00     0.039 A 
ATOM     17  C   UNL     1      -1.137   1.610  -1.089  1.00  0.00     0.010 A 
ATOM     18  C   UNL     1      -0.549   2.002   1.222  1.00  0.00     0.010 A 
ATOM     19  F   UNL     1      -2.058   5.007  -0.168  1.00  0.00    -0.207 F 
ENDBRANCH   2  13
ENDBRANCH   1   2
BRANCH   1  20
ATOM     20  C   UNL     1      -2.364  -1.250  -0.020  1.00  0.00     0.019 C 
BRANCH  20  21
ATOM     21  C   UNL     1      -3.238  -2.204  -0.832  1.00  0.00     0.084 C 
BRANCH  21  22
ATOM     22  N   UNL     1      -4.589  -2.244  -0.285  1.00  0.00    -0.309 NA
ATOM     23  C   UNL     1      -4.566  -2.671   1.115  1.00  0.00     0.104 C 
ATOM     24  C   UNL     1      -5.439  -3.137  -1.074  1.00  0.00     0.104 C 
ENDBRANCH  21  22
ENDBRANCH  20  21
ENDBRANCH   1  20
TORSDOF 5
