REMARK SMILES CNCC[C@@H](Oc1ccc(C(F)(F)F)cc1)c1ccccc1
REMARK SMILES IDX 5 1 6 2 7 3 10 4 9 5 15 6 8 7 16 8 11 9 12 10 13 11 14 12
REMARK SMILES IDX 4 13 3 14 2 15 1 16 17 18 18 19 22 20 19 21 21 22 20 23
REMARK H PARENT 2 17
ROOT
ATOM      1  C   UNL     1       1.838   0.258   0.233  1.00  0.00     0.205 C 
ENDROOT
BRANCH   1   2
ATOM      2  O   UNL     1       0.923   0.559  -0.823  1.00  0.00    -0.486 OA
BRANCH   2   3
ATOM      3  C   UNL     1      -0.391   0.463  -0.570  1.00  0.00     0.120 A 
ATOM      4  C   UNL     1      -3.143   0.260  -0.045  1.00  0.00     0.056 A 
ATOM      5  C   UNL     1      -2.564  -0.524  -1.042  1.00  0.00     0.017 A 
ATOM      6  C   UNL     1      -2.356   1.145   0.692  1.00  0.00     0.017 A 
ATOM      7  C   UNL     1      -1.198  -0.423  -1.303  1.00  0.00     0.047 A 
ATOM      8  C   UNL     1      -0.989   1.245   0.431  1.00  0.00     0.047 A 
BRANCH   4   9
ATOM      9  C   UNL     1      -4.604   0.152   0.235  1.00  0.00     0.416 C 
ATOM     10  F   UNL     1      -5.249  -0.752  -0.560  1.00  0.00    -0.166 F 
ATOM     11  F   UNL     1      -4.889  -0.233   1.514  1.00  0.00    -0.166 F 
ATOM     12  F   UNL     1      -5.263   1.334   0.053  1.00  0.00    -0.166 F 
ENDBRANCH   4   9
ENDBRANCH   2   3
ENDBRANCH   1   2
BRANCH   1  13
ATOM     13  C   UNL     1       3.092   1.134   0.074  1.00  0.00     0.065 C 
BRANCH  13  14
ATOM     14  C   UNL     1       2.789   2.631   0.150  1.00  0.00     0.085 C 
BRANCH  14  15
ATOM     15  N   UNL     1       4.015   3.402  -0.021  1.00  0.00    -0.320 NA
ATOM     16  C   UNL     1       3.737   4.831   0.009  1.00  0.00     0.101 C 
ATOM     17  H   UNL     1       4.450   3.162  -0.912  1.00  0.00     0.122 HD
ENDBRANCH  14  15
ENDBRANCH  13  14
ENDBRANCH   1  13
BRANCH   1  18
ATOM     18  C   UNL     1       2.119  -1.226   0.196  1.00  0.00    -0.008 A 
ATOM     19  C   UNL     1       2.093  -1.891  -1.019  1.00  0.00     0.007 A 
ATOM     20  C   UNL     1       2.398  -1.893   1.378  1.00  0.00     0.007 A 
ATOM     21  C   UNL     1       2.352  -3.261  -1.053  1.00  0.00     0.000 A 
ATOM     22  C   UNL     1       2.657  -3.263   1.344  1.00  0.00     0.000 A 
ATOM     23  C   UNL     1       2.634  -3.947   0.129  1.00  0.00     0.000 A 
ENDBRANCH   1  18
TORSDOF 7
