REMARK SMILES COCCCCC(=NOCCN)c1ccc(C(F)(F)F)cc1
REMARK SMILES IDX 8 1 7 2 13 3 16 4 15 5 21 6 14 7 22 8 17 9 18 10 19 11 20 12
REMARK SMILES IDX 6 13 5 14 4 15 3 16 2 17 1 18 9 19 10 20 11 21 12 22
REMARK H PARENT 12 23 12 24
ROOT
ATOM      1  N   UNL     1       0.975   1.962  -0.026  1.00  0.00    -0.091 NA
ATOM      2  C   UNL     1       0.560   0.802   0.394  1.00  0.00     0.087 C 
ENDROOT
BRANCH   2   3
ATOM      3  C   UNL     1      -0.892   0.474   0.243  1.00  0.00    -0.001 A 
ATOM      4  C   UNL     1      -3.599  -0.139  -0.040  1.00  0.00     0.056 A 
ATOM      5  C   UNL     1      -3.198   1.186   0.134  1.00  0.00     0.014 A 
ATOM      6  C   UNL     1      -2.647  -1.157  -0.072  1.00  0.00     0.014 A 
ATOM      7  C   UNL     1      -1.845   1.492   0.275  1.00  0.00     0.011 A 
ATOM      8  C   UNL     1      -1.294  -0.851   0.069  1.00  0.00     0.011 A 
BRANCH   4   9
ATOM      9  C   UNL     1      -5.046  -0.466  -0.190  1.00  0.00     0.416 C 
ATOM     10  F   UNL     1      -5.292  -1.800  -0.351  1.00  0.00    -0.166 F 
ATOM     11  F   UNL     1      -5.806  -0.092   0.882  1.00  0.00    -0.166 F 
ATOM     12  F   UNL     1      -5.614   0.143  -1.271  1.00  0.00    -0.166 F 
ENDBRANCH   4   9
ENDBRANCH   2   3
BRANCH   2  13
ATOM     13  C   UNL     1       1.482  -0.235   1.034  1.00  0.00     0.060 C 
BRANCH  13  14
ATOM     14  C   UNL     1       2.134  -1.124  -0.025  1.00  0.00     0.009 C 
BRANCH  14  15
ATOM     15  C   UNL     1       3.025  -2.186   0.615  1.00  0.00     0.029 C 
BRANCH  15  16
ATOM     16  C   UNL     1       3.645  -3.103  -0.430  1.00  0.00     0.159 C 
BRANCH  16  17
ATOM     17  O   UNL     1       4.471  -4.054   0.227  1.00  0.00    -0.385 OA
ATOM     18  C   UNL     1       5.067  -4.955  -0.698  1.00  0.00     0.194 C 
ENDBRANCH  16  17
ENDBRANCH  15  16
ENDBRANCH  14  15
ENDBRANCH  13  14
ENDBRANCH   2  13
BRANCH   1  19
ATOM     19  O   UNL     1       2.347   2.136   0.185  1.00  0.00    -0.394 OA
BRANCH  19  20
ATOM     20  C   UNL     1       2.709   3.420  -0.300  1.00  0.00     0.279 C 
BRANCH  20  21
ATOM     21  C   UNL     1       4.199   3.624  -0.077  1.00  0.00     0.122 C 
BRANCH  21  22
ATOM     22  N   UNL     1       4.619   4.925  -0.577  1.00  0.00    -0.327 NA
ATOM     23  H   UNL     1       4.119   5.662  -0.082  1.00  0.00     0.119 HD
ATOM     24  H   UNL     1       5.608   5.063  -0.372  1.00  0.00     0.119 HD
ENDBRANCH  21  22
ENDBRANCH  20  21
ENDBRANCH  19  20
ENDBRANCH   1  19
TORSDOF 11
