REMARK SMILES c1ccc2c(CCC3CCNCC3)c[nH]c2c1
REMARK SMILES IDX 7 1 8 2 11 3 10 4 12 5 9 6 13 7 6 9 5 10 4 11 14 12 16 13
REMARK SMILES IDX 3 14 15 15 17 16 2 17 1 18
REMARK H PARENT 11 8 15 19
ROOT
ATOM      1  C   UNL     1       1.211   0.707  -0.384  1.00  0.00     0.008 C 
ENDROOT
BRANCH   1   2
ATOM      2  C   UNL     1       2.673   0.528   0.015  1.00  0.00    -0.008 C 
ATOM      3  N   UNL     1       5.191  -0.970  -0.179  1.00  0.00    -0.317 NA
ATOM      4  C   UNL     1       4.370  -1.042   1.032  1.00  0.00     0.081 C 
ATOM      5  C   UNL     1       5.046   0.333  -0.832  1.00  0.00     0.081 C 
ATOM      6  C   UNL     1       2.890  -0.811   0.731  1.00  0.00     0.019 C 
ATOM      7  C   UNL     1       3.593   0.622  -1.210  1.00  0.00     0.019 C 
ATOM      8  H   UNL     1       6.169  -1.116   0.068  1.00  0.00     0.122 HD
ENDBRANCH   1   2
BRANCH   1   9
ATOM      9  C   UNL     1       0.300   0.726   0.844  1.00  0.00     0.038 C 
BRANCH   9  10
ATOM     10  C   UNL     1      -1.140   0.923   0.474  1.00  0.00    -0.023 A 
ATOM     11  C   UNL     1      -2.066  -0.100   0.189  1.00  0.00     0.003 A 
ATOM     12  C   UNL     1      -1.759   2.132   0.362  1.00  0.00     0.087 A 
ATOM     13  C   UNL     1      -3.276   0.534  -0.102  1.00  0.00     0.046 A 
ATOM     14  C   UNL     1      -2.011  -1.508   0.145  1.00  0.00     0.010 A 
ATOM     15  N   UNL     1      -3.060   1.889   0.011  1.00  0.00    -0.361 N 
ATOM     16  C   UNL     1      -4.438  -0.171  -0.435  1.00  0.00     0.026 A 
ATOM     17  C   UNL     1      -3.165  -2.226  -0.188  1.00  0.00     0.001 A 
ATOM     18  C   UNL     1      -4.359  -1.566  -0.473  1.00  0.00     0.002 A 
ATOM     19  H   UNL     1      -3.761   2.601  -0.143  1.00  0.00     0.166 HD
ENDBRANCH   9  10
ENDBRANCH   1   9
TORSDOF 3
