REMARK SMILES CC(C)NNC(=O)COc1ccc(Cl)cc1
REMARK SMILES IDX 7 1 5 2 6 3 8 5 9 6 10 7 13 8 12 9 15 10 11 11 16 12 14 13
REMARK SMILES IDX 4 14 2 16 1 17 3 18
REMARK H PARENT 5 4 4 15
ROOT
ATOM      1  O   UNL     1       1.880   1.633   0.647  1.00  0.00    -0.270 OA
ATOM      2  N   UNL     1       2.736   0.087  -0.866  1.00  0.00    -0.288 N 
ATOM      3  C   UNL     1       1.728   0.807  -0.249  1.00  0.00     0.271 C 
ATOM      4  H   UNL     1       2.555  -0.570  -1.620  1.00  0.00     0.185 HD
ENDROOT
BRANCH   3   5
ATOM      5  C   UNL     1       0.369   0.458  -0.818  1.00  0.00     0.330 C 
BRANCH   5   6
ATOM      6  O   UNL     1      -0.647   1.191  -0.167  1.00  0.00    -0.484 OA
BRANCH   6   7
ATOM      7  C   UNL     1      -1.885   0.601  -0.072  1.00  0.00     0.120 A 
ATOM      8  C   UNL     1      -4.386  -0.589   0.118  1.00  0.00     0.041 A 
ATOM      9  C   UNL     1      -3.553  -0.885  -0.961  1.00  0.00     0.024 A 
ATOM     10  C   UNL     1      -3.962   0.305   1.102  1.00  0.00     0.024 A 
ATOM     11  C   UNL     1      -2.296  -0.287  -1.056  1.00  0.00     0.048 A 
ATOM     12  C   UNL     1      -2.705   0.902   1.006  1.00  0.00     0.048 A 
ATOM     13 CL   UNL     1      -5.936  -1.326   0.236  1.00  0.00    -0.084 Cl
ENDBRANCH   6   7
ENDBRANCH   5   6
ENDBRANCH   3   5
BRANCH   2  14
ATOM     14  N   UNL     1       4.047   0.287  -0.467  1.00  0.00    -0.232 NA
ATOM     15  H   UNL     1       4.557   0.621  -1.284  1.00  0.00     0.148 HD
BRANCH  14  16
ATOM     16  C   UNL     1       4.628  -0.963   0.002  1.00  0.00     0.068 C 
ATOM     17  C   UNL     1       3.875  -1.470   1.229  1.00  0.00     0.026 C 
ATOM     18  C   UNL     1       6.106  -0.750   0.315  1.00  0.00     0.026 C 
ENDBRANCH  14  16
ENDBRANCH   2  14
TORSDOF 5
