REMARK SMILES Cc1cc(C(=O)NNCc2ccccc2)no1
REMARK SMILES IDX 6 1 7 2 5 3 4 5 17 6 16 7 2 8 3 9 1 10 8 11 9 13 10 14 11 15
REMARK SMILES IDX 15 16 12 17 14 18 13 19
REMARK H PARENT 7 4 8 12
ROOT
ATOM      1  O   UNL     1       1.206  -1.731   0.639  1.00  0.00    -0.266 OA
ATOM      2  N   UNL     1       0.524   0.459   0.384  1.00  0.00    -0.286 N 
ATOM      3  C   UNL     1       1.476  -0.551   0.418  1.00  0.00     0.287 C 
ATOM      4  H   UNL     1       0.763   1.431   0.209  1.00  0.00     0.185 HD
ENDROOT
BRANCH   3   5
ATOM      5  C   UNL     1       2.855  -0.123   0.141  1.00  0.00     0.172 A 
ATOM      6  O   UNL     1       4.454   1.203  -0.324  1.00  0.00    -0.361 OA
ATOM      7  N   UNL     1       3.082   1.150  -0.112  1.00  0.00    -0.074 NA
ATOM      8  C   UNL     1       4.977  -0.043  -0.186  1.00  0.00     0.134 A 
ATOM      9  C   UNL     1       3.978  -0.931   0.114  1.00  0.00     0.082 A 
ATOM     10  C   UNL     1       6.427  -0.171  -0.379  1.00  0.00     0.091 C 
ENDBRANCH   3   5
BRANCH   2  11
ATOM     11  N   UNL     1      -0.802   0.131   0.610  1.00  0.00    -0.230 NA
ATOM     12  H   UNL     1      -1.095   0.660   1.432  1.00  0.00     0.148 HD
BRANCH  11  13
ATOM     13  C   UNL     1      -1.617   0.528  -0.540  1.00  0.00     0.140 C 
BRANCH  13  14
ATOM     14  C   UNL     1      -3.069   0.262  -0.327  1.00  0.00    -0.032 A 
ATOM     15  C   UNL     1      -3.615  -0.965  -0.702  1.00  0.00     0.005 A 
ATOM     16  C   UNL     1      -3.880   1.240   0.247  1.00  0.00     0.005 A 
ATOM     17  C   UNL     1      -4.973  -1.214  -0.503  1.00  0.00     0.000 A 
ATOM     18  C   UNL     1      -5.238   0.991   0.447  1.00  0.00     0.000 A 
ATOM     19  C   UNL     1      -5.785  -0.236   0.072  1.00  0.00     0.000 A 
ENDBRANCH  13  14
ENDBRANCH  11  13
ENDBRANCH   2  11
TORSDOF 4
