REMARK SMILES CN[C@]1(c2ccccc2Cl)CCCCC1=O
REMARK SMILES IDX 16 1 3 2 11 3 12 4 13 5 15 6 14 7 4 8 9 9 8 10 5 11 7 12
REMARK SMILES IDX 6 13 10 14 2 15 1 16
REMARK H PARENT 2 17
ROOT
ATOM      1  O   UNL     1       1.776  -1.878   1.018  1.00  0.00    -0.297 OA
ATOM      2  C   UNL     1       0.737  -0.291  -0.522  1.00  0.00     0.104 C 
ATOM      3  C   UNL     1       1.595   0.777  -1.249  1.00  0.00     0.035 C 
ATOM      4  C   UNL     1       1.977   1.957  -0.349  1.00  0.00     0.003 C 
ATOM      5  C   UNL     1       2.752   1.475   0.873  1.00  0.00     0.008 C 
ATOM      6  C   UNL     1       1.543  -0.704   0.725  1.00  0.00     0.157 C 
ATOM      7  C   UNL     1       1.981   0.419   1.647  1.00  0.00     0.078 C 
ENDROOT
BRANCH   2   8
ATOM      8  C   UNL     1      -0.692   0.124  -0.150  1.00  0.00    -0.002 A 
ATOM      9  C   UNL     1      -1.571  -0.758   0.479  1.00  0.00     0.046 A 
ATOM     10  C   UNL     1      -2.863  -0.344   0.800  1.00  0.00     0.021 A 
ATOM     11  C   UNL     1      -1.106   1.421  -0.457  1.00  0.00     0.007 A 
ATOM     12  C   UNL     1      -3.277   0.952   0.492  1.00  0.00     0.002 A 
ATOM     13  C   UNL     1      -2.399   1.834  -0.136  1.00  0.00     0.000 A 
ATOM     14 CL   UNL     1      -1.095  -2.369   0.873  1.00  0.00    -0.084 Cl
ENDBRANCH   2   8
BRANCH   2  15
ATOM     15  N   UNL     1       0.691  -1.462  -1.416  1.00  0.00    -0.304 NA
ATOM     16  C   UNL     1      -0.049  -1.153  -2.630  1.00  0.00     0.102 C 
ATOM     17  H   UNL     1       1.636  -1.756  -1.663  1.00  0.00     0.123 HD
ENDBRANCH   2  15
TORSDOF 2
