REMARK SMILES CCN(CC)C(=O)[C@@]1(c2ccccc2)C[C@H]1CN
REMARK SMILES IDX 8 1 16 2 15 3 6 4 7 5 3 6 2 7 1 8 4 9 5 10 9 11 10 12 14 13
REMARK SMILES IDX 11 14 13 15 12 16 17 17 18 18
REMARK H PARENT 18 19 18 20
ROOT
ATOM      1  C   UNL     1      -0.113   0.600  -0.359  1.00  0.00     0.079 C 
ATOM      2  C   UNL     1      -0.510   1.958  -0.840  1.00  0.00     0.024 C 
ATOM      3  C   UNL     1      -0.595   0.777  -1.762  1.00  0.00     0.028 C 
ENDROOT
BRANCH   1   4
ATOM      4  C   UNL     1      -1.055  -0.067   0.591  1.00  0.00     0.233 C 
ATOM      5  O   UNL     1      -1.329   0.520   1.635  1.00  0.00    -0.274 OA
ATOM      6  N   UNL     1      -1.560  -1.319   0.223  1.00  0.00    -0.342 N 
BRANCH   6   7
ATOM      7  C   UNL     1      -2.873  -1.782   0.649  1.00  0.00     0.116 C 
ATOM      8  C   UNL     1      -3.931  -1.391  -0.330  1.00  0.00     0.027 C 
ENDBRANCH   6   7
BRANCH   6   9
ATOM      9  C   UNL     1      -0.804  -2.247  -0.613  1.00  0.00     0.116 C 
ATOM     10  C   UNL     1       0.045  -3.156   0.215  1.00  0.00     0.027 C 
ENDBRANCH   6   9
ENDBRANCH   1   4
BRANCH   1  11
ATOM     11  C   UNL     1       1.316   0.271  -0.134  1.00  0.00    -0.032 A 
ATOM     12  C   UNL     1       1.924   0.572   1.089  1.00  0.00     0.005 A 
ATOM     13  C   UNL     1       2.066  -0.340  -1.144  1.00  0.00     0.005 A 
ATOM     14  C   UNL     1       3.268   0.265   1.300  1.00  0.00     0.000 A 
ATOM     15  C   UNL     1       3.410  -0.646  -0.933  1.00  0.00     0.000 A 
ATOM     16  C   UNL     1       4.011  -0.344   0.289  1.00  0.00     0.000 A 
ENDBRANCH   1  11
BRANCH   2  17
ATOM     17  C   UNL     1      -1.768   2.593  -0.371  1.00  0.00     0.082 C 
BRANCH  17  18
ATOM     18  N   UNL     1      -1.503   3.738   0.495  1.00  0.00    -0.330 NA
ATOM     19  H   UNL     1      -1.087   3.412   1.367  1.00  0.00     0.118 HD
ATOM     20  H   UNL     1      -2.387   4.178   0.752  1.00  0.00     0.118 HD
ENDBRANCH  17  18
ENDBRANCH   2  17
TORSDOF 6
