REMARK SMILES CNCCC[C@]12CC[C@H](c3ccccc31)c1ccccc12
REMARK SMILES IDX 3 1 2 2 1 3 4 5 5 6 6 7 7 8 21 9 15 10 8 11 16 12 20 13
REMARK SMILES IDX 10 14 14 15 9 16 17 17 19 18 11 19 13 20 18 21 12 22
REMARK H PARENT 2 4
ROOT
ATOM      1  C   UNL     1       3.915  -1.159   0.232  1.00  0.00     0.080 C 
ENDROOT
BRANCH   1   2
ATOM      2  N   UNL     1       5.104  -0.522  -0.322  1.00  0.00    -0.320 NA
ATOM      3  C   UNL     1       6.313  -1.183   0.147  1.00  0.00     0.101 C 
ATOM      4  H   UNL     1       5.126   0.460  -0.048  1.00  0.00     0.122 HD
ENDBRANCH   1   2
BRANCH   1   5
ATOM      5  C   UNL     1       2.653  -0.478  -0.295  1.00  0.00     0.016 C 
BRANCH   5   6
ATOM      6  C   UNL     1       1.402  -1.149   0.261  1.00  0.00     0.018 C 
BRANCH   6   7
ATOM      7  C   UNL     1       0.133  -0.451  -0.237  1.00  0.00     0.021 C 
ATOM      8  C   UNL     1       0.120  -0.429  -1.804  1.00  0.00     0.017 C 
ATOM      9  C   UNL     1       0.008   1.025   0.187  1.00  0.00    -0.034 A 
ATOM     10  C   UNL     1      -1.180  -1.150   0.166  1.00  0.00    -0.034 A 
ATOM     11  C   UNL     1      -1.161   0.277  -2.341  1.00  0.00     0.014 C 
ATOM     12  C   UNL     1      -1.163   1.657  -0.315  1.00  0.00    -0.036 A 
ATOM     13  C   UNL     1       0.889   1.747   0.986  1.00  0.00     0.005 A 
ATOM     14  C   UNL     1      -2.340  -0.500  -0.337  1.00  0.00    -0.036 A 
ATOM     15  C   UNL     1      -1.318  -2.294   0.946  1.00  0.00     0.005 A 
ATOM     16  C   UNL     1      -2.043   0.747  -1.160  1.00  0.00     0.050 C 
ATOM     17  C   UNL     1      -1.442   2.987  -0.026  1.00  0.00     0.004 A 
ATOM     18  C   UNL     1       0.606   3.085   1.274  1.00  0.00     0.000 A 
ATOM     19  C   UNL     1      -3.612  -0.988  -0.066  1.00  0.00     0.004 A 
ATOM     20  C   UNL     1      -2.599  -2.784   1.216  1.00  0.00     0.000 A 
ATOM     21  C   UNL     1      -0.548   3.700   0.773  1.00  0.00     0.000 A 
ATOM     22  C   UNL     1      -3.736  -2.137   0.715  1.00  0.00     0.000 A 
ENDBRANCH   6   7
ENDBRANCH   5   6
ENDBRANCH   1   5
TORSDOF 4
