REMARK SMILES CN(C)CC(Oc1ccccc1)Oc1ccccc1
REMARK SMILES IDX 5 1 6 2 7 3 8 4 12 5 9 6 11 7 10 8 13 9 14 10 15 11 19 12
REMARK SMILES IDX 16 13 18 14 17 15 4 16 2 17 1 18 3 19
REMARK H PARENT
ROOT
ATOM      1  C   UNL     1      -1.173  -0.221   0.230  1.00  0.00     0.377 C 
ENDROOT
BRANCH   1   2
ATOM      2  O   UNL     1      -0.440   0.644   1.121  1.00  0.00    -0.454 OA
BRANCH   2   3
ATOM      3  C   UNL     1       0.225   1.714   0.587  1.00  0.00     0.124 A 
ATOM      4  C   UNL     1      -0.484   2.690  -0.107  1.00  0.00     0.046 A 
ATOM      5  C   UNL     1       1.603   1.818   0.741  1.00  0.00     0.046 A 
ATOM      6  C   UNL     1       0.193   3.781  -0.652  1.00  0.00     0.004 A 
ATOM      7  C   UNL     1       2.280   2.909   0.196  1.00  0.00     0.004 A 
ATOM      8  C   UNL     1       1.575   3.890  -0.500  1.00  0.00     0.000 A 
ENDBRANCH   2   3
ENDBRANCH   1   2
BRANCH   1   9
ATOM      9  O   UNL     1      -0.725  -1.577   0.378  1.00  0.00    -0.454 OA
BRANCH   9  10
ATOM     10  C   UNL     1       0.578  -1.882   0.091  1.00  0.00     0.124 A 
ATOM     11  C   UNL     1       1.074  -1.653  -1.188  1.00  0.00     0.046 A 
ATOM     12  C   UNL     1       1.395  -2.419   1.081  1.00  0.00     0.046 A 
ATOM     13  C   UNL     1       2.402  -1.965  -1.481  1.00  0.00     0.004 A 
ATOM     14  C   UNL     1       2.722  -2.730   0.788  1.00  0.00     0.004 A 
ATOM     15  C   UNL     1       3.226  -2.504  -0.493  1.00  0.00     0.000 A 
ENDBRANCH   9  10
ENDBRANCH   1   9
BRANCH   1  16
ATOM     16  C   UNL     1      -2.642  -0.148   0.679  1.00  0.00     0.174 C 
BRANCH  16  17
ATOM     17  N   UNL     1      -3.497  -0.951  -0.194  1.00  0.00    -0.302 NA
ATOM     18  C   UNL     1      -3.433  -0.457  -1.568  1.00  0.00     0.105 C 
ATOM     19  C   UNL     1      -4.877  -0.939   0.291  1.00  0.00     0.105 C 
ENDBRANCH  16  17
ENDBRANCH   1  16
TORSDOF 6
