REMARK SMILES CN1CCN2c3ccccc3Cc3ccccc3[C@@H]2C1
REMARK SMILES IDX 5 1 2 2 19 3 20 4 4 5 18 6 3 7 6 8 13 9 12 10 11 11 1 12
REMARK SMILES IDX 17 13 7 14 14 15 10 16 16 17 15 18 8 19 9 20
REMARK H PARENT
ROOT
ATOM      1  N   UNL     1       0.456   1.207  -0.119  1.00  0.00    -0.362 N 
ATOM      2  N   UNL     1       3.308   1.103  -0.058  1.00  0.00    -0.302 NA
ATOM      3  C   UNL     1       1.141  -0.041  -0.530  1.00  0.00     0.127 C 
ATOM      4  C   UNL     1       2.511  -0.108   0.188  1.00  0.00     0.114 C 
ATOM      5  C   UNL     1       1.245   2.434  -0.284  1.00  0.00     0.133 C 
ATOM      6  C   UNL     1       0.432  -1.382  -0.334  1.00  0.00    -0.021 A 
ATOM      7  C   UNL     1       2.592   2.288   0.424  1.00  0.00     0.105 C 
ATOM      8  C   UNL     1      -0.932   1.330  -0.132  1.00  0.00     0.041 A 
ATOM      9  C   UNL     1      -0.527  -1.645   0.662  1.00  0.00    -0.038 A 
ATOM     10  C   UNL     1      -1.054  -0.547   1.545  1.00  0.00     0.073 C 
ATOM     11  C   UNL     1      -1.723   0.508   0.699  1.00  0.00    -0.020 A 
ATOM     12  C   UNL     1       4.617   0.998   0.586  1.00  0.00     0.105 C 
ATOM     13  C   UNL     1       0.822  -2.443  -1.178  1.00  0.00     0.006 A 
ATOM     14  C   UNL     1      -1.596   2.287  -0.922  1.00  0.00     0.026 A 
ATOM     15  C   UNL     1      -1.061  -2.940   0.797  1.00  0.00     0.004 A 
ATOM     16  C   UNL     1      -3.121   0.639   0.717  1.00  0.00     0.006 A 
ATOM     17  C   UNL     1       0.284  -3.723  -1.038  1.00  0.00     0.000 A 
ATOM     18  C   UNL     1      -0.655  -3.972  -0.046  1.00  0.00     0.000 A 
ATOM     19  C   UNL     1      -2.987   2.416  -0.898  1.00  0.00     0.002 A 
ATOM     20  C   UNL     1      -3.749   1.592  -0.078  1.00  0.00     0.000 A 
ENDROOT
TORSDOF 0
