REMARK SMILES CCN(CC)C(=O)[C@]1(c2ccccc2)C[C@@H]1CN
REMARK SMILES IDX 8 1 16 2 15 3 6 4 7 5 3 6 2 7 1 8 4 9 5 10 9 11 10 12 14 13
REMARK SMILES IDX 11 14 13 15 12 16 17 17 18 18
REMARK H PARENT 18 19 18 20
ROOT
ATOM      1  C   UNL     1       0.114   0.600  -0.363  1.00  0.00     0.079 C 
ATOM      2  C   UNL     1       0.517   1.955  -0.849  1.00  0.00     0.024 C 
ATOM      3  C   UNL     1       0.598   0.770  -1.767  1.00  0.00     0.028 C 
ENDROOT
BRANCH   1   4
ATOM      4  C   UNL     1       1.053  -0.067   0.590  1.00  0.00     0.233 C 
ATOM      5  O   UNL     1       1.331   0.523   1.630  1.00  0.00    -0.274 OA
ATOM      6  N   UNL     1       1.553  -1.323   0.226  1.00  0.00    -0.342 N 
BRANCH   6   7
ATOM      7  C   UNL     1       2.865  -1.789   0.652  1.00  0.00     0.116 C 
ATOM      8  C   UNL     1       3.938  -1.398  -0.350  1.00  0.00     0.027 C 
ENDBRANCH   6   7
BRANCH   6   9
ATOM      9  C   UNL     1       0.793  -2.252  -0.605  1.00  0.00     0.116 C 
ATOM     10  C   UNL     1      -0.071  -3.168   0.246  1.00  0.00     0.027 C 
ENDBRANCH   6   9
ENDBRANCH   1   4
BRANCH   1  11
ATOM     11  C   UNL     1      -1.316   0.279  -0.139  1.00  0.00    -0.032 A 
ATOM     12  C   UNL     1      -1.924   0.587   1.083  1.00  0.00     0.005 A 
ATOM     13  C   UNL     1      -2.067  -0.336  -1.146  1.00  0.00     0.005 A 
ATOM     14  C   UNL     1      -3.269   0.283   1.295  1.00  0.00     0.000 A 
ATOM     15  C   UNL     1      -3.412  -0.640  -0.934  1.00  0.00     0.000 A 
ATOM     16  C   UNL     1      -4.013  -0.330   0.287  1.00  0.00     0.000 A 
ENDBRANCH   1  11
BRANCH   2  17
ATOM     17  C   UNL     1       1.777   2.588  -0.382  1.00  0.00     0.082 C 
BRANCH  17  18
ATOM     18  N   UNL     1       1.534   3.717   0.527  1.00  0.00    -0.330 NA
ATOM     19  H   UNL     1       1.000   4.436   0.039  1.00  0.00     0.118 HD
ATOM     20  H   UNL     1       2.426   4.147   0.769  1.00  0.00     0.118 HD
ENDBRANCH  17  18
ENDBRANCH   2  17
TORSDOF 6
