REMARK SMILES CN1CCN2c3ncccc3Cc3ccccc3[C@@H]2C1
REMARK SMILES IDX 5 1 2 2 7 3 19 4 20 5 4 6 3 7 18 8 6 9 13 10 12 11 11 12
REMARK SMILES IDX 1 13 17 14 14 15 10 16 16 17 15 18 9 19 8 20
REMARK H PARENT
ROOT
ATOM      1  N   UNL     1      -0.455  -1.186  -0.022  1.00  0.00    -0.347 N 
ATOM      2  N   UNL     1      -3.304  -1.072  -0.080  1.00  0.00    -0.302 NA
ATOM      3  N   UNL     1       1.470  -2.348  -0.858  1.00  0.00    -0.239 NA
ATOM      4  C   UNL     1      -1.115   0.055  -0.490  1.00  0.00     0.128 C 
ATOM      5  C   UNL     1      -2.510   0.139   0.180  1.00  0.00     0.114 C 
ATOM      6  C   UNL     1      -1.238  -2.412  -0.216  1.00  0.00     0.134 C 
ATOM      7  C   UNL     1      -2.612  -2.259   0.436  1.00  0.00     0.105 C 
ATOM      8  C   UNL     1      -0.405   1.397  -0.306  1.00  0.00    -0.021 A 
ATOM      9  C   UNL     1       0.934  -1.349  -0.103  1.00  0.00     0.132 A 
ATOM     10  C   UNL     1       0.594   1.661   0.650  1.00  0.00    -0.038 A 
ATOM     11  C   UNL     1       1.156   0.569   1.518  1.00  0.00     0.075 C 
ATOM     12  C   UNL     1       1.760  -0.513   0.664  1.00  0.00    -0.001 A 
ATOM     13  C   UNL     1      -4.633  -0.954   0.519  1.00  0.00     0.105 C 
ATOM     14  C   UNL     1      -0.826   2.460  -1.135  1.00  0.00     0.006 A 
ATOM     15  C   UNL     1       1.129   2.958   0.765  1.00  0.00     0.004 A 
ATOM     16  C   UNL     1       3.147  -0.690   0.610  1.00  0.00     0.009 A 
ATOM     17  C   UNL     1      -0.286   3.740  -1.015  1.00  0.00     0.000 A 
ATOM     18  C   UNL     1       0.690   3.990  -0.060  1.00  0.00     0.000 A 
ATOM     19  C   UNL     1       3.689  -1.694  -0.176  1.00  0.00     0.021 A 
ATOM     20  C   UNL     1       2.814  -2.492  -0.883  1.00  0.00     0.113 A 
ENDROOT
TORSDOF 0
