REMARK SMILES O=C(NCCN1CCOCC1)c1ccc(Cl)cc1
REMARK SMILES IDX 1 1 3 2 2 3 12 5 15 6 14 7 17 8 13 9 18 10 16 11 4 12 5 13
REMARK SMILES IDX 6 14 7 15 11 16 8 17 10 18 9 19
REMARK H PARENT 3 4
ROOT
ATOM      1  O   UNL     1       0.831  -1.449  -1.365  1.00  0.00    -0.269 OA
ATOM      2  N   UNL     1       0.225   0.586  -0.437  1.00  0.00    -0.351 N 
ATOM      3  C   UNL     1       1.115  -0.413  -0.770  1.00  0.00     0.251 C 
ATOM      4  H   UNL     1       0.507   1.379   0.129  1.00  0.00     0.163 HD
ENDROOT
BRANCH   3   5
ATOM      5  C   UNL     1       2.518  -0.188  -0.333  1.00  0.00     0.039 A 
ATOM      6  C   UNL     1       5.121   0.230   0.479  1.00  0.00     0.041 A 
ATOM      7  C   UNL     1       4.643  -1.070   0.310  1.00  0.00     0.021 A 
ATOM      8  C   UNL     1       4.282   1.318   0.237  1.00  0.00     0.021 A 
ATOM      9  C   UNL     1       3.327  -1.281  -0.101  1.00  0.00     0.015 A 
ATOM     10  C   UNL     1       2.966   1.107  -0.173  1.00  0.00     0.015 A 
ATOM     11 CL   UNL     1       6.744   0.491   0.985  1.00  0.00    -0.084 Cl
ENDBRANCH   3   5
BRANCH   2  12
ATOM     12  C   UNL     1      -1.191   0.500  -0.773  1.00  0.00     0.131 C 
BRANCH  12  13
ATOM     13  C   UNL     1      -1.964  -0.176   0.352  1.00  0.00     0.106 C 
BRANCH  13  14
ATOM     14  N   UNL     1      -3.384  -0.228   0.011  1.00  0.00    -0.297 NA
ATOM     15  C   UNL     1      -3.930   1.126  -0.153  1.00  0.00     0.113 C 
ATOM     16  C   UNL     1      -4.141  -0.955   1.039  1.00  0.00     0.113 C 
ATOM     17  C   UNL     1      -5.415   1.047  -0.497  1.00  0.00     0.175 C 
ATOM     18  C   UNL     1      -5.621  -0.986   0.666  1.00  0.00     0.175 C 
ATOM     19  O   UNL     1      -6.125   0.343   0.523  1.00  0.00    -0.379 OA
ENDBRANCH  13  14
ENDBRANCH  12  13
ENDBRANCH   2  12
TORSDOF 4
