REMARK SMILES CN1Cc2c(N)cccc2[C@@H](c2ccccc2)C1
REMARK SMILES IDX 2 1 11 2 18 3 10 4 3 5 4 6 5 7 9 8 1 9 7 10 8 11 12 12 13 13
REMARK SMILES IDX 17 14 14 15 16 16 15 17 6 18
REMARK H PARENT 6 19 6 20
ROOT
ATOM      1  N   UNL     1      -0.410  -2.247   0.151  1.00  0.00    -0.301 NA
ATOM      2  C   UNL     1       0.464  -0.297  -1.122  1.00  0.00     0.064 C 
ATOM      3  C   UNL     1       0.244  -1.828  -1.095  1.00  0.00     0.097 C 
ATOM      4  C   UNL     1      -0.766   0.471  -0.667  1.00  0.00    -0.033 A 
ATOM      5  C   UNL     1      -1.766  -1.682   0.231  1.00  0.00     0.122 C 
ATOM      6  C   UNL     1      -1.809  -0.188   0.009  1.00  0.00    -0.007 A 
ATOM      7  C   UNL     1      -2.933   0.541   0.423  1.00  0.00     0.036 A 
ATOM      8  C   UNL     1      -0.862   1.852  -0.904  1.00  0.00     0.005 A 
ATOM      9  C   UNL     1      -0.457  -3.706   0.249  1.00  0.00     0.105 C 
ATOM     10  C   UNL     1      -3.015   1.913   0.185  1.00  0.00     0.026 A 
ATOM     11  C   UNL     1      -1.980   2.567  -0.478  1.00  0.00     0.002 A 
ENDROOT
BRANCH   2  12
ATOM     12  C   UNL     1       1.730   0.093  -0.367  1.00  0.00    -0.039 A 
ATOM     13  C   UNL     1       1.662   0.379   0.993  1.00  0.00     0.004 A 
ATOM     14  C   UNL     1       2.944   0.160  -1.043  1.00  0.00     0.004 A 
ATOM     15  C   UNL     1       2.820   0.736   1.684  1.00  0.00     0.000 A 
ATOM     16  C   UNL     1       4.102   0.516  -0.353  1.00  0.00     0.000 A 
ATOM     17  C   UNL     1       4.040   0.805   1.011  1.00  0.00     0.000 A 
ENDBRANCH   2  12
BRANCH   7  18
ATOM     18  N   UNL     1      -4.009  -0.086   1.093  1.00  0.00    -0.398 N 
ATOM     19  H   UNL     1      -4.812   0.466   1.366  1.00  0.00     0.156 HD
ATOM     20  H   UNL     1      -4.047  -1.089   1.202  1.00  0.00     0.156 HD
ENDBRANCH   7  18
TORSDOF 2
