REMARK SMILES CC(C)N1CCO[C@H](c2cccc(C(F)(F)F)c2)C1
REMARK SMILES IDX 9 1 18 2 10 3 13 4 11 5 12 6 14 7 15 8 16 9 17 10 8 11 7 12
REMARK SMILES IDX 19 13 6 14 4 15 5 16 2 17 1 18 3 19
REMARK H PARENT
ROOT
ATOM      1  C   UNL     1      -0.476   1.073  -0.241  1.00  0.00    -0.017 A 
ATOM      2  C   UNL     1      -1.262   0.002   0.185  1.00  0.00     0.019 A 
ATOM      3  C   UNL     1      -1.049   2.107  -0.981  1.00  0.00     0.006 A 
ATOM      4  C   UNL     1      -2.620  -0.035  -0.131  1.00  0.00     0.056 A 
ATOM      5  C   UNL     1      -2.407   2.070  -1.296  1.00  0.00     0.001 A 
ATOM      6  C   UNL     1      -3.193   0.999  -0.871  1.00  0.00     0.013 A 
ENDROOT
BRANCH   4   7
ATOM      7  C   UNL     1      -3.461  -1.180   0.325  1.00  0.00     0.416 C 
ATOM      8  F   UNL     1      -4.769  -1.083  -0.055  1.00  0.00    -0.166 F 
ATOM      9  F   UNL     1      -3.041  -2.390  -0.151  1.00  0.00    -0.166 F 
ATOM     10  F   UNL     1      -3.482  -1.308   1.683  1.00  0.00    -0.166 F 
ENDBRANCH   4   7
BRANCH   1  11
ATOM     11  C   UNL     1       0.998   1.114   0.102  1.00  0.00     0.162 C 
ATOM     12  O   UNL     1       1.140   1.172   1.528  1.00  0.00    -0.371 OA
ATOM     13  C   UNL     1       1.737  -0.115  -0.451  1.00  0.00     0.121 C 
ATOM     14  C   UNL     1       2.515   1.248   1.906  1.00  0.00     0.176 C 
ATOM     15  N   UNL     1       3.156  -0.056  -0.067  1.00  0.00    -0.296 NA
ATOM     16  C   UNL     1       3.277   0.029   1.394  1.00  0.00     0.113 C 
BRANCH  15  17
ATOM     17  C   UNL     1       3.880  -1.218  -0.580  1.00  0.00     0.050 C 
ATOM     18  C   UNL     1       5.357  -1.128  -0.206  1.00  0.00     0.024 C 
ATOM     19  C   UNL     1       3.702  -1.300  -2.093  1.00  0.00     0.024 C 
ENDBRANCH  15  17
ENDBRANCH   1  11
TORSDOF 3
