REMARK SMILES Fc1ccc([C@@H]2CCNC[C@H]2COc2ccc3c(c2)OCO3)cc1
REMARK SMILES IDX 9 1 6 2 11 3 7 4 10 5 8 6 5 8 2 9 3 10 24 11 4 12 23 13 1 14
REMARK SMILES IDX 12 15 13 16 14 17 19 18 15 19 18 20 16 21 20 22 17 23 21 24
REMARK SMILES IDX 22 25
REMARK H PARENT 9 7
ROOT
ATOM      1  N   UNL     1       3.667  -3.182  -0.381  1.00  0.00    -0.316 NA
ATOM      2  C   UNL     1       2.348  -0.668   0.357  1.00  0.00     0.028 C 
ATOM      3  C   UNL     1       1.925  -1.479  -0.895  1.00  0.00     0.048 C 
ATOM      4  C   UNL     1       3.809  -0.986   0.728  1.00  0.00     0.024 C 
ATOM      5  C   UNL     1       2.256  -2.971  -0.702  1.00  0.00     0.088 C 
ATOM      6  C   UNL     1       4.039  -2.490   0.851  1.00  0.00     0.081 C 
ATOM      7  H   UNL     1       4.238  -2.826  -1.148  1.00  0.00     0.122 HD
ENDROOT
BRANCH   2   8
ATOM      8  C   UNL     1       2.153   0.833   0.211  1.00  0.00    -0.044 A 
ATOM      9  C   UNL     1       1.797   3.581  -0.058  1.00  0.00     0.123 A 
ATOM     10  C   UNL     1       1.605   2.970   1.182  1.00  0.00     0.039 A 
ATOM     11  C   UNL     1       2.167   2.814  -1.163  1.00  0.00     0.039 A 
ATOM     12  C   UNL     1       1.784   1.594   1.316  1.00  0.00     0.007 A 
ATOM     13  C   UNL     1       2.345   1.437  -1.028  1.00  0.00     0.007 A 
ATOM     14  F   UNL     1       1.625   4.903  -0.187  1.00  0.00    -0.207 F 
ENDBRANCH   2   8
BRANCH   3  15
ATOM     15  C   UNL     1       0.431  -1.324  -1.202  1.00  0.00     0.235 C 
BRANCH  15  16
ATOM     16  O   UNL     1      -0.302  -1.857  -0.117  1.00  0.00    -0.493 OA
BRANCH  16  17
ATOM     17  C   UNL     1      -1.535  -1.306   0.136  1.00  0.00     0.123 A 
ATOM     18  C   UNL     1      -2.275  -0.778  -0.917  1.00  0.00     0.097 A 
ATOM     19  C   UNL     1      -2.019  -1.290   1.450  1.00  0.00     0.050 A 
ATOM     20  C   UNL     1      -3.507  -0.236  -0.613  1.00  0.00     0.169 A 
ATOM     21  C   UNL     1      -3.271  -0.736   1.730  1.00  0.00     0.054 A 
ATOM     22  O   UNL     1      -4.373   0.326  -1.500  1.00  0.00    -0.453 OA
ATOM     23  C   UNL     1      -3.992  -0.216   0.675  1.00  0.00     0.166 A 
ATOM     24  C   UNL     1      -5.457   0.702  -0.626  1.00  0.00     0.468 C 
ATOM     25  O   UNL     1      -5.221   0.361   0.755  1.00  0.00    -0.454 OA
ENDBRANCH  16  17
ENDBRANCH  15  16
ENDBRANCH   3  15
TORSDOF 4
