REMARK SMILES CNCCCC1c2ccccc2C=Cc2ccccc21
REMARK SMILES IDX 3 1 2 2 1 3 4 5 5 6 6 7 7 8 20 9 12 10 8 11 15 12 19 13
REMARK SMILES IDX 13 14 11 15 9 16 14 17 16 18 18 19 10 20 17 21
REMARK H PARENT 2 4
ROOT
ATOM      1  C   UNL     1       3.331  -1.871  -0.311  1.00  0.00     0.080 C 
ENDROOT
BRANCH   1   2
ATOM      2  N   UNL     1       4.693  -1.551   0.100  1.00  0.00    -0.320 NA
ATOM      3  C   UNL     1       5.657  -2.387  -0.602  1.00  0.00     0.101 C 
ATOM      4  H   UNL     1       4.790  -1.692   1.105  1.00  0.00     0.122 HD
ENDBRANCH   1   2
BRANCH   1   5
ATOM      5  C   UNL     1       2.333  -0.964   0.407  1.00  0.00     0.016 C 
BRANCH   5   6
ATOM      6  C   UNL     1       0.908  -1.278  -0.032  1.00  0.00     0.014 C 
BRANCH   6   7
ATOM      7  C   UNL     1      -0.103  -0.392   0.708  1.00  0.00     0.050 C 
ATOM      8  C   UNL     1       0.151   1.091   0.485  1.00  0.00    -0.033 A 
ATOM      9  C   UNL     1      -1.542  -0.808   0.444  1.00  0.00    -0.033 A 
ATOM     10  C   UNL     1      -0.120   1.745  -0.733  1.00  0.00    -0.022 A 
ATOM     11  C   UNL     1       0.707   1.836   1.545  1.00  0.00     0.005 A 
ATOM     12  C   UNL     1      -2.197  -0.583  -0.783  1.00  0.00    -0.022 A 
ATOM     13  C   UNL     1      -2.241  -1.470   1.473  1.00  0.00     0.005 A 
ATOM     14  C   UNL     1      -0.675   1.072  -1.916  1.00  0.00     0.009 C 
ATOM     15  C   UNL     1       0.191   3.111  -0.864  1.00  0.00     0.008 A 
ATOM     16  C   UNL     1       0.995   3.193   1.403  1.00  0.00     0.000 A 
ATOM     17  C   UNL     1      -1.567   0.072  -1.938  1.00  0.00     0.009 C 
ATOM     18  C   UNL     1      -3.515  -1.044  -0.954  1.00  0.00     0.008 A 
ATOM     19  C   UNL     1      -3.553  -1.906   1.293  1.00  0.00     0.000 A 
ATOM     20  C   UNL     1       0.739   3.830   0.197  1.00  0.00     0.001 A 
ATOM     21  C   UNL     1      -4.190  -1.695   0.078  1.00  0.00     0.001 A 
ENDBRANCH   6   7
ENDBRANCH   5   6
ENDBRANCH   1   5
TORSDOF 4
