REMARK SMILES C#CCN(C)[C@H](C)Cc1ccccc1
REMARK SMILES IDX 4 1 5 2 6 3 7 4 8 5 9 6 10 7 14 8 11 9 13 10 12 11 3 12 2 13
REMARK SMILES IDX 1 14
REMARK H PARENT
ROOT
ATOM      1  N   UNL     1      -2.076  -0.110  -0.242  1.00  0.00    -0.292 NA
ATOM      2  C   UNL     1      -2.273  -1.540  -0.472  1.00  0.00     0.106 C 
ENDROOT
BRANCH   1   3
ATOM      3  C   UNL     1      -0.712   0.146   0.230  1.00  0.00     0.058 C 
ATOM      4  C   UNL     1      -0.555   1.650   0.456  1.00  0.00     0.025 C 
BRANCH   3   5
ATOM      5  C   UNL     1       0.298  -0.405  -0.793  1.00  0.00     0.054 C 
BRANCH   5   6
ATOM      6  C   UNL     1       1.739  -0.225  -0.378  1.00  0.00    -0.046 A 
ATOM      7  C   UNL     1       2.412   0.929  -0.744  1.00  0.00     0.004 A 
ATOM      8  C   UNL     1       2.361  -1.218   0.362  1.00  0.00     0.004 A 
ATOM      9  C   UNL     1       3.743   1.096  -0.361  1.00  0.00     0.000 A 
ATOM     10  C   UNL     1       3.692  -1.051   0.746  1.00  0.00     0.000 A 
ATOM     11  C   UNL     1       4.383   0.105   0.385  1.00  0.00     0.000 A 
ENDBRANCH   5   6
ENDBRANCH   3   5
ENDBRANCH   1   3
BRANCH   1  12
ATOM     12  C   UNL     1      -3.050   0.394   0.724  1.00  0.00     0.174 C 
ATOM     13  C   UNL     1      -4.419   0.194   0.239  1.00  0.00    -0.091 C 
ATOM     14  C   UNL     1      -5.543   0.033  -0.153  1.00  0.00     0.005 C 
ENDBRANCH   1  12
TORSDOF 4
