REMARK SMILES CN[C@H]1CC[C@@H](c2ccc(Cl)c(Cl)c2)c2ccccc21
REMARK SMILES IDX 6 1 5 2 3 3 4 4 15 5 20 6 16 7 19 8 17 9 18 10 7 11 12 12
REMARK SMILES IDX 14 13 10 14 9 15 8 16 13 17 11 18 2 19 1 20
REMARK H PARENT 2 21
ROOT
ATOM      1  C   UNL     1       0.234   0.124   1.208  1.00  0.00     0.050 C 
ATOM      2  C   UNL     1       0.714   1.590   1.217  1.00  0.00     0.015 C 
ATOM      3  C   UNL     1       2.940   0.988   0.201  1.00  0.00     0.084 C 
ATOM      4  C   UNL     1       2.228   1.670   1.376  1.00  0.00     0.025 C 
ATOM      5  C   UNL     1       1.148  -0.823   0.435  1.00  0.00    -0.036 A 
ATOM      6  C   UNL     1       2.423  -0.420  -0.014  1.00  0.00    -0.027 A 
ATOM      7  C   UNL     1       0.754  -2.160   0.236  1.00  0.00     0.005 A 
ATOM      8  C   UNL     1       3.242  -1.341  -0.691  1.00  0.00     0.005 A 
ATOM      9  C   UNL     1       1.580  -3.063  -0.435  1.00  0.00     0.000 A 
ATOM     10  C   UNL     1       2.821  -2.653  -0.903  1.00  0.00     0.000 A 
ENDROOT
BRANCH   1  11
ATOM     11  C   UNL     1      -1.224   0.084   0.768  1.00  0.00    -0.039 A 
ATOM     12  C   UNL     1      -2.902   0.441  -0.923  1.00  0.00     0.059 A 
ATOM     13  C   UNL     1      -1.567   0.478  -0.521  1.00  0.00     0.026 A 
ATOM     14  C   UNL     1      -3.887   0.009  -0.034  1.00  0.00     0.059 A 
ATOM     15  C   UNL     1      -3.536  -0.385   1.257  1.00  0.00     0.022 A 
ATOM     16  C   UNL     1      -2.201  -0.348   1.659  1.00  0.00     0.006 A 
ATOM     17 CL   UNL     1      -3.274   0.941  -2.536  1.00  0.00    -0.083 Cl
ATOM     18 CL   UNL     1      -5.557  -0.059  -0.473  1.00  0.00    -0.083 Cl
ENDBRANCH   1  11
BRANCH   3  19
ATOM     19  N   UNL     1       2.789   1.787  -1.020  1.00  0.00    -0.313 NA
ATOM     20  C   UNL     1       3.276   3.140  -0.809  1.00  0.00     0.102 C 
ATOM     21  H   UNL     1       3.334   1.355  -1.766  1.00  0.00     0.122 HD
ENDBRANCH   3  19
TORSDOF 2
