REMARK SMILES Cc1cccc(N2C[C@@H](CO)OC2=O)c1
REMARK SMILES IDX 12 1 14 2 7 3 9 4 8 5 13 6 10 7 11 8 6 10 15 11 5 12 2 13
REMARK SMILES IDX 4 14 3 15 1 16
REMARK H PARENT 11 9
ROOT
ATOM      1  O   UNL     1      -2.692  -0.703   0.520  1.00  0.00    -0.441 OA
ATOM      2  O   UNL     1      -1.243  -2.376   0.026  1.00  0.00    -0.224 OA
ATOM      3  N   UNL     1      -0.518  -0.140   0.300  1.00  0.00    -0.274 N 
ATOM      4  C   UNL     1      -2.649   0.731   0.533  1.00  0.00     0.224 C 
ATOM      5  C   UNL     1      -1.184   1.061   0.728  1.00  0.00     0.177 C 
ATOM      6  C   UNL     1      -1.433  -1.188   0.245  1.00  0.00     0.414 C 
ENDROOT
BRANCH   4   7
ATOM      7  C   UNL     1      -3.211   1.252  -0.783  1.00  0.00     0.203 C 
BRANCH   7   8
ATOM      8  O   UNL     1      -4.576   0.883  -0.871  1.00  0.00    -0.392 OA
ATOM      9  H   UNL     1      -4.622  -0.087  -0.819  1.00  0.00     0.210 HD
ENDBRANCH   7   8
ENDBRANCH   4   7
BRANCH   3  10
ATOM     10  C   UNL     1       0.889  -0.207   0.084  1.00  0.00     0.047 A 
ATOM     11  C   UNL     1       1.672   0.948   0.178  1.00  0.00     0.030 A 
ATOM     12  C   UNL     1       1.496  -1.428  -0.223  1.00  0.00     0.026 A 
ATOM     13  C   UNL     1       3.049   0.882  -0.033  1.00  0.00    -0.049 A 
ATOM     14  C   UNL     1       2.873  -1.494  -0.434  1.00  0.00     0.002 A 
ATOM     15  C   UNL     1       3.650  -0.339  -0.340  1.00  0.00     0.003 A 
ATOM     16  C   UNL     1       3.879   2.117   0.068  1.00  0.00     0.044 C 
ENDBRANCH   3  10
TORSDOF 3
