REMARK SMILES N[C@@H]1C[C@H]1c1ccccc1
REMARK SMILES IDX 4 1 2 2 3 3 1 4 5 7 6 8 10 9 7 10 9 11 8 12
REMARK H PARENT 1 5 1 6
ROOT
ATOM      1  C   UNL     1       1.292  -0.117  -0.595  1.00  0.00     0.037 C 
ATOM      2  C   UNL     1       2.280   0.143   0.499  1.00  0.00     0.058 C 
ATOM      3  C   UNL     1       2.085  -1.250  -0.023  1.00  0.00     0.029 C 
ENDROOT
BRANCH   2   4
ATOM      4  N   UNL     1       3.519   0.867   0.203  1.00  0.00    -0.327 NA
ATOM      5  H   UNL     1       4.233   0.633   0.891  1.00  0.00     0.119 HD
ATOM      6  H   UNL     1       3.365   1.871   0.286  1.00  0.00     0.119 HD
ENDBRANCH   2   4
BRANCH   1   7
ATOM      7  C   UNL     1      -0.166  -0.025  -0.295  1.00  0.00    -0.043 A 
ATOM      8  C   UNL     1      -0.790   1.221  -0.240  1.00  0.00     0.004 A 
ATOM      9  C   UNL     1      -0.905  -1.186  -0.069  1.00  0.00     0.004 A 
ATOM     10  C   UNL     1      -2.154   1.306   0.041  1.00  0.00     0.000 A 
ATOM     11  C   UNL     1      -2.268  -1.102   0.212  1.00  0.00     0.000 A 
ATOM     12  C   UNL     1      -2.893   0.144   0.267  1.00  0.00     0.000 A 
ENDBRANCH   1   7
TORSDOF 2
