REMARK SMILES O=c1n(CCCN2CCN(c3cccc(Cl)c3)CC2)nc2ccccn12
REMARK SMILES IDX 6 1 7 2 10 3 9 4 18 5 8 6 19 7 11 8 15 9 17 10 14 11 13 12
REMARK SMILES IDX 12 13 16 14 5 15 4 16 3 17 20 18 2 19 21 20 1 21 26 22 22 23
REMARK SMILES IDX 25 24 23 25 24 26
REMARK H PARENT
ROOT
ATOM      1  C   UNL     1      -0.860  -1.422   1.467  1.00  0.00     0.086 C 
ENDROOT
BRANCH   1   2
ATOM      2  N   UNL     1       0.269  -0.916   0.686  1.00  0.00    -0.300 NA
ATOM      3  N   UNL     1       3.013  -0.339   0.143  1.00  0.00    -0.369 N 
ATOM      4  C   UNL     1       2.110   0.730   0.586  1.00  0.00     0.132 C 
ATOM      5  C   UNL     1       2.367  -1.495  -0.486  1.00  0.00     0.132 C 
ATOM      6  C   UNL     1       0.961   0.153   1.416  1.00  0.00     0.106 C 
ATOM      7  C   UNL     1       1.209  -2.000   0.378  1.00  0.00     0.106 C 
BRANCH   3   8
ATOM      8  C   UNL     1       4.318   0.011  -0.223  1.00  0.00     0.038 A 
ATOM      9  C   UNL     1       6.488   0.981   0.330  1.00  0.00     0.043 A 
ATOM     10  C   UNL     1       5.187   0.634   0.695  1.00  0.00     0.046 A 
ATOM     11  C   UNL     1       6.945   0.714  -0.961  1.00  0.00     0.020 A 
ATOM     12  C   UNL     1       6.102   0.098  -1.886  1.00  0.00     0.004 A 
ATOM     13  C   UNL     1       4.801  -0.250  -1.521  1.00  0.00     0.026 A 
ATOM     14 CL   UNL     1       7.528   1.743   1.470  1.00  0.00    -0.084 Cl
ENDBRANCH   3   8
ENDBRANCH   1   2
BRANCH   1  15
ATOM     15  C   UNL     1      -1.643  -2.497   0.709  1.00  0.00     0.039 C 
BRANCH  15  16
ATOM     16  C   UNL     1      -2.228  -2.031  -0.623  1.00  0.00     0.151 C 
BRANCH  16  17
ATOM     17  N   UNL     1      -3.170  -0.957  -0.465  1.00  0.00    -0.213 N 
ATOM     18  N   UNL     1      -2.770   0.361  -0.495  1.00  0.00    -0.150 NA
ATOM     19  C   UNL     1      -4.563  -1.050  -0.266  1.00  0.00     0.350 A 
ATOM     20  C   UNL     1      -3.867   1.030  -0.322  1.00  0.00     0.161 A 
ATOM     21  O   UNL     1      -5.235  -2.068  -0.191  1.00  0.00    -0.246 OA
ATOM     22  N   UNL     1      -4.982   0.262  -0.178  1.00  0.00    -0.250 N 
ATOM     23  C   UNL     1      -4.037   2.499  -0.267  1.00  0.00     0.050 A 
ATOM     24  C   UNL     1      -6.242   0.755   0.014  1.00  0.00     0.098 A 
ATOM     25  C   UNL     1      -5.281   2.970  -0.077  1.00  0.00     0.005 A 
ATOM     26  C   UNL     1      -6.420   2.083   0.068  1.00  0.00     0.019 A 
ENDBRANCH  16  17
ENDBRANCH  15  16
ENDBRANCH   1  15
TORSDOF 5
