REMARK SMILES C[C@@H](CN(C)C)CN1c2ccccc2CCc2ccccc21
REMARK SMILES IDX 7 1 8 2 9 3 14 4 10 5 13 6 11 7 12 8 15 9 22 11 17 12 21 13
REMARK SMILES IDX 18 14 20 15 19 16 16 17 2 19 1 20 3 21 4 22 5 23 6 24
REMARK H PARENT
REMARK Flexibility Score:   28.900
ROOT
ATOM      1  C   UNL     1       0.293   0.963  -1.633  1.00  0.00     0.127 C 
ENDROOT
BRANCH   1   2
ATOM      2  N   UNL     1      -0.394  -0.009  -0.768  1.00  0.00    -0.341 N 
BRANCH   2   3
ATOM      3  C   UNL     1       0.275  -1.233  -0.488  1.00  0.00     0.044 A 
ATOM      4  C   UNL     1      -0.033  -2.077   0.606  1.00  0.00    -0.024 A 
ATOM      5  C   UNL     1       1.290  -1.688  -1.372  1.00  0.00     0.026 A 
ATOM      6  C   UNL     1       0.642  -3.316   0.748  1.00  0.00     0.006 A 
ATOM      7  C   UNL     1       1.958  -2.903  -1.202  1.00  0.00     0.002 A 
ATOM      8  C   UNL     1       1.629  -3.723  -0.141  1.00  0.00     0.000 A 
BRANCH   4   9
ATOM      9  C   UNL     1      -1.052  -1.794   1.689  1.00  0.00     0.042 CG0
ATOM     10  G   UNL     1      -1.358  -0.329   1.957  1.00  0.00     0.000 G0
ENDBRANCH   4   9
ENDBRANCH   2   3
BRANCH   2  11
ATOM     11  C   UNL     1      -1.726   0.357  -0.440  1.00  0.00     0.044 A 
ATOM     12  C   UNL     1      -2.229   0.219   0.864  1.00  0.00    -0.024 A 
ATOM     13  C   UNL     1      -2.590   0.885  -1.424  1.00  0.00     0.026 A 
ATOM     14  C   UNL     1      -3.549   0.602   1.160  1.00  0.00     0.006 A 
ATOM     15  C   UNL     1      -3.900   1.262  -1.124  1.00  0.00     0.002 A 
ATOM     16  C   UNL     1      -4.380   1.121   0.171  1.00  0.00     0.000 A 
BRANCH  12  17
ATOM     17  C   UNL     1      -1.358  -0.329   1.957  1.00  0.00     0.042 CG0
ATOM     18  G   UNL     1      -1.052  -1.794   1.689  1.00  0.00     0.000 G0
ENDBRANCH  12  17
ENDBRANCH   2  11
ENDBRANCH   1   2
BRANCH   1  19
ATOM     19  C   UNL     1       1.668   1.362  -1.068  1.00  0.00     0.020 C 
ATOM     20  C   UNL     1       2.388   2.343  -2.000  1.00  0.00     0.011 C 
BRANCH  19  21
ATOM     21  C   UNL     1       1.603   1.946   0.356  1.00  0.00     0.089 C 
BRANCH  21  22
ATOM     22  N   UNL     1       2.930   2.207   0.902  1.00  0.00    -0.309 NA
ATOM     23  C   UNL     1       3.704   0.968   0.990  1.00  0.00     0.104 C 
ATOM     24  C   UNL     1       2.830   2.838   2.219  1.00  0.00     0.104 C 
ENDBRANCH  21  22
ENDBRANCH  19  21
ENDBRANCH   1  19
TORSDOF 4
