REMARK SMILES COc1ccc([C@H](CN(C)C)C2(O)CCCCC2)cc1
REMARK SMILES IDX 7 1 12 2 14 3 18 4 15 5 17 6 16 7 13 8 8 10 9 11 10 12 11 13
REMARK SMILES IDX 6 14 5 15 19 16 4 17 20 18 3 19 2 20 1 21
REMARK H PARENT 13 9
ROOT
ATOM      1  C   UNL     1      -0.773  -0.690   0.295  1.00  0.00     0.065 C 
ENDROOT
BRANCH   1   2
ATOM      2  C   UNL     1      -1.771   0.379  -0.154  1.00  0.00     0.073 C 
ATOM      3  C   UNL     1      -1.706   1.599   0.778  1.00  0.00     0.036 C 
ATOM      4  C   UNL     1      -3.196  -0.196  -0.206  1.00  0.00     0.036 C 
ATOM      5  C   UNL     1      -2.753   2.657   0.424  1.00  0.00     0.003 C 
ATOM      6  C   UNL     1      -4.237   0.868  -0.559  1.00  0.00     0.003 C 
ATOM      7  C   UNL     1      -4.158   2.066   0.382  1.00  0.00     0.000 C 
BRANCH   2   8
ATOM      8  O   UNL     1      -1.393   0.806  -1.466  1.00  0.00    -0.389 OA
ATOM      9  H   UNL     1      -1.663   0.124  -2.104  1.00  0.00     0.211 HD
ENDBRANCH   2   8
ENDBRANCH   1   2
BRANCH   1  10
ATOM     10  C   UNL     1      -0.866  -1.988  -0.536  1.00  0.00     0.095 C 
BRANCH  10  11
ATOM     11  N   UNL     1       0.048  -3.018  -0.051  1.00  0.00    -0.309 NA
ATOM     12  C   UNL     1      -0.017  -4.205  -0.904  1.00  0.00     0.105 C 
ATOM     13  C   UNL     1      -0.264  -3.370   1.335  1.00  0.00     0.105 C 
ENDBRANCH  10  11
ENDBRANCH   1  10
BRANCH   1  14
ATOM     14  C   UNL     1       0.650  -0.146   0.272  1.00  0.00    -0.040 A 
ATOM     15  C   UNL     1       1.350  -0.064   1.457  1.00  0.00     0.008 A 
ATOM     16  C   UNL     1       1.193   0.246  -0.934  1.00  0.00     0.008 A 
ATOM     17  C   UNL     1       2.652   0.434   1.436  1.00  0.00     0.047 A 
ATOM     18  C   UNL     1       2.496   0.744  -0.955  1.00  0.00     0.047 A 
ATOM     19  C   UNL     1       3.226   0.838   0.231  1.00  0.00     0.118 A 
BRANCH  19  20
ATOM     20  O   UNL     1       4.497   1.324   0.211  1.00  0.00    -0.497 OA
ATOM     21  C   UNL     1       5.022   1.718  -1.056  1.00  0.00     0.278 C 
ENDBRANCH  19  20
ENDBRANCH   1  14
TORSDOF 6
