REMARK SMILES N#Cc1ccc2[nH]cc(CCCCN3CCN(c4ccc5oc(C(N)=O)cc5c4)CC3)c2c1
REMARK SMILES IDX 13 1 14 2 17 3 16 4 30 5 15 6 31 7 18 8 22 9 21 10 23 11
REMARK SMILES IDX 28 12 20 13 27 14 29 15 19 16 24 17 26 18 25 19 12 22 11 23
REMARK SMILES IDX 10 24 9 25 32 26 8 27 6 28 33 29 7 30 5 31 3 32 4 33 2 34
REMARK SMILES IDX 1 35
REMARK H PARENT 25 20 25 21 7 36
ROOT
ATOM      1  C   UNL     1      -2.193  -4.085  -0.380  1.00  0.00     0.084 C 
ENDROOT
BRANCH   1   2
ATOM      2  N   UNL     1      -1.106  -3.171  -0.030  1.00  0.00    -0.300 NA
ATOM      3  N   UNL     1       1.573  -2.182  -0.037  1.00  0.00    -0.369 N 
ATOM      4  C   UNL     1       1.066  -2.925   1.123  1.00  0.00     0.132 C 
ATOM      5  C   UNL     1       0.554  -1.549  -0.880  1.00  0.00     0.132 C 
ATOM      6  C   UNL     1      -0.051  -3.882   0.701  1.00  0.00     0.106 C 
ATOM      7  C   UNL     1      -0.547  -2.550  -1.236  1.00  0.00     0.106 C 
BRANCH   3   8
ATOM      8  C   UNL     1       2.851  -1.617   0.051  1.00  0.00     0.038 A 
ATOM      9  O   UNL     1       6.556   0.186   0.287  1.00  0.00    -0.451 OA
ATOM     10  C   UNL     1       5.393  -0.522   0.229  1.00  0.00     0.135 A 
ATOM     11  C   UNL     1       6.232   1.492   0.095  1.00  0.00     0.192 A 
ATOM     12  C   UNL     1       4.320   0.333  -0.001  1.00  0.00     0.023 A 
ATOM     13  C   UNL     1       5.275  -1.903   0.377  1.00  0.00     0.050 A 
ATOM     14  C   UNL     1       4.876   1.636  -0.086  1.00  0.00     0.065 A 
ATOM     15  C   UNL     1       3.030  -0.219  -0.092  1.00  0.00     0.038 A 
ATOM     16  C   UNL     1       3.983  -2.430   0.282  1.00  0.00     0.030 A 
BRANCH  11  17
ATOM     17  C   UNL     1       7.286   2.448   0.110  1.00  0.00     0.284 C 
ATOM     18  O   UNL     1       7.137   3.683  -0.073  1.00  0.00    -0.266 OA
ATOM     19  N   UNL     1       8.597   1.991   0.322  1.00  0.00    -0.363 N 
ATOM     20  H   UNL     1       9.378   2.638   0.333  1.00  0.00     0.160 HD
ATOM     21  H   UNL     1       8.806   1.009   0.469  1.00  0.00     0.160 HD
ENDBRANCH  11  17
ENDBRANCH   3   8
ENDBRANCH   1   2
BRANCH   1  22
ATOM     22  C   UNL     1      -3.321  -3.326  -1.077  1.00  0.00     0.016 C 
BRANCH  22  23
ATOM     23  C   UNL     1      -3.885  -2.225  -0.177  1.00  0.00     0.006 C 
BRANCH  23  24
ATOM     24  C   UNL     1      -4.992  -1.438  -0.885  1.00  0.00     0.038 C 
BRANCH  24  25
ATOM     25  C   UNL     1      -5.537  -0.330  -0.034  1.00  0.00    -0.023 A 
ATOM     26  C   UNL     1      -5.054   0.994   0.004  1.00  0.00     0.004 A 
ATOM     27  C   UNL     1      -6.584  -0.451   0.830  1.00  0.00     0.087 A 
ATOM     28  C   UNL     1      -5.850   1.676   0.927  1.00  0.00     0.046 A 
ATOM     29  C   UNL     1      -4.020   1.695  -0.648  1.00  0.00     0.030 A 
ATOM     30  N   UNL     1      -6.771   0.774   1.412  1.00  0.00    -0.361 N 
ATOM     31  C   UNL     1      -5.664   3.029   1.230  1.00  0.00     0.028 A 
ATOM     32  C   UNL     1      -3.822   3.049  -0.354  1.00  0.00     0.053 A 
ATOM     33  C   UNL     1      -4.632   3.704   0.571  1.00  0.00     0.021 A 
ATOM     34  C   UNL     1      -2.775   3.767  -1.013  1.00  0.00     0.099 C 
ATOM     35  N   UNL     1      -1.925   4.349  -1.548  1.00  0.00    -0.192 NA
ATOM     36  H   UNL     1      -7.481   0.987   2.099  1.00  0.00     0.166 HD
ENDBRANCH  24  25
ENDBRANCH  23  24
ENDBRANCH  22  23
ENDBRANCH   1  22
TORSDOF 7
