REMARK SMILES CCOc1ccccc1OC[C@@H]1CNCCO1
REMARK SMILES IDX 9 1 4 2 8 3 5 4 7 5 6 6 10 7 11 8 12 9 17 10 16 11 13 12
REMARK SMILES IDX 15 13 14 14 3 16 2 17 1 18
REMARK H PARENT 14 15
ROOT
ATOM      1  C   UNL     1       1.511  -0.786   0.415  1.00  0.00     0.161 A 
ATOM      2  C   UNL     1       2.099   0.460   0.233  1.00  0.00     0.161 A 
ATOM      3  C   UNL     1       2.204  -1.951   0.107  1.00  0.00     0.050 A 
ATOM      4  C   UNL     1       3.400   0.542  -0.266  1.00  0.00     0.050 A 
ATOM      5  C   UNL     1       3.504  -1.869  -0.391  1.00  0.00     0.004 A 
ATOM      6  C   UNL     1       4.102  -0.623  -0.577  1.00  0.00     0.004 A 
ENDROOT
BRANCH   1   7
ATOM      7  O   UNL     1       0.232  -0.880   0.903  1.00  0.00    -0.487 OA
BRANCH   7   8
ATOM      8  C   UNL     1      -0.727  -1.516   0.077  1.00  0.00     0.263 C 
BRANCH   8   9
ATOM      9  C   UNL     1      -2.095  -0.913   0.362  1.00  0.00     0.169 C 
ATOM     10  O   UNL     1      -2.020   0.491   0.087  1.00  0.00    -0.372 OA
ATOM     11  C   UNL     1      -3.269   1.132   0.351  1.00  0.00     0.176 C 
ATOM     12  C   UNL     1      -3.175  -1.555  -0.513  1.00  0.00     0.116 C 
ATOM     13  C   UNL     1      -4.368   0.529  -0.514  1.00  0.00     0.109 C 
ATOM     14  N   UNL     1      -4.469  -0.911  -0.275  1.00  0.00    -0.312 NA
ATOM     15  H   UNL     1      -4.739  -1.066   0.697  1.00  0.00     0.122 HD
ENDBRANCH   8   9
ENDBRANCH   7   8
ENDBRANCH   1   7
BRANCH   2  16
ATOM     16  O   UNL     1       1.424   1.604   0.533  1.00  0.00    -0.490 OA
BRANCH  16  17
ATOM     17  C   UNL     1       1.210   2.529  -0.531  1.00  0.00     0.226 C 
ATOM     18  C   UNL     1       0.436   3.718  -0.002  1.00  0.00     0.049 C 
ENDBRANCH  16  17
ENDBRANCH   2  16
TORSDOF 5
