REMARK SMILES Cc1ccc(Sc2ccccc2N2CCNCC2)c(C)c1
REMARK SMILES IDX 12 1 7 2 11 3 8 4 10 5 9 6 6 7 5 8 19 9 4 10 21 11 3 12 2 13
REMARK SMILES IDX 20 14 1 15 13 16 14 17 18 18 15 19 17 20 16 21
REMARK H PARENT 16 22
ROOT
ATOM      1  C   UNL     1      -1.766  -0.979   0.152  1.00  0.00     0.051 A 
ATOM      2  C   UNL     1      -0.521  -1.145  -0.494  1.00  0.00     0.036 A 
ATOM      3  C   UNL     1      -2.276  -2.069   0.886  1.00  0.00     0.027 A 
ATOM      4  C   UNL     1       0.179  -2.348  -0.408  1.00  0.00     0.017 A 
ATOM      5  C   UNL     1      -1.576  -3.272   0.972  1.00  0.00     0.002 A 
ATOM      6  C   UNL     1      -0.348  -3.412   0.325  1.00  0.00     0.001 A 
ENDROOT
BRANCH   2   7
ATOM      7  S   UNL     1       0.203   0.185  -1.448  1.00  0.00    -0.088 SA
BRANCH   7   8
ATOM      8  C   UNL     1       1.741   0.432  -0.575  1.00  0.00     0.015 A 
ATOM      9  C   UNL     1       2.978   0.279  -1.206  1.00  0.00    -0.037 A 
ATOM     10  C   UNL     1       1.689   0.788   0.774  1.00  0.00     0.016 A 
ATOM     11  C   UNL     1       4.158   0.481  -0.489  1.00  0.00     0.008 A 
ATOM     12  C   UNL     1       2.869   0.990   1.490  1.00  0.00     0.004 A 
ATOM     13  C   UNL     1       4.104   0.836   0.858  1.00  0.00    -0.051 A 
ATOM     14  C   UNL     1       3.088  -0.101  -2.648  1.00  0.00     0.045 C 
ATOM     15  C   UNL     1       5.365   1.052   1.625  1.00  0.00     0.044 C 
ENDBRANCH   7   8
ENDBRANCH   2   7
BRANCH   1  16
ATOM     16  N   UNL     1      -2.497   0.213   0.088  1.00  0.00    -0.368 N 
ATOM     17  C   UNL     1      -3.466   0.371  -1.005  1.00  0.00     0.132 C 
ATOM     18  C   UNL     1      -2.805   0.944   1.322  1.00  0.00     0.132 C 
ATOM     19  C   UNL     1      -3.779   1.850  -1.233  1.00  0.00     0.102 C 
ATOM     20  C   UNL     1      -3.142   2.402   1.010  1.00  0.00     0.102 C 
ATOM     21  N   UNL     1      -4.198   2.504   0.005  1.00  0.00    -0.313 NA
ATOM     22  H   UNL     1      -4.391   3.487  -0.183  1.00  0.00     0.122 HD
ENDBRANCH   1  16
TORSDOF 3
