REMARK SMILES CN(C)CC=C(c1ccc(Br)cc1)c1cccnc1
REMARK SMILES IDX 6 1 5 2 7 3 10 4 9 5 12 6 8 7 13 8 11 9 14 10 15 11 19 12
REMARK SMILES IDX 16 13 18 14 17 15 4 16 2 17 1 18 3 19
REMARK H PARENT
ROOT
ATOM      1  C   UNL     1       0.112   0.230   0.321  1.00  0.00    -0.012 C 
ATOM      2  C   UNL     1       0.711   1.381   0.701  1.00  0.00    -0.002 C 
ENDROOT
BRANCH   1   3
ATOM      3  C   UNL     1      -1.366   0.242   0.164  1.00  0.00    -0.018 A 
ATOM      4  C   UNL     1      -4.108   0.264  -0.129  1.00  0.00     0.018 A 
ATOM      5  C   UNL     1      -3.541  -0.061   1.103  1.00  0.00     0.016 A 
ATOM      6  C   UNL     1      -3.288   0.579  -1.213  1.00  0.00     0.016 A 
ATOM      7  C   UNL     1      -2.154  -0.073   1.251  1.00  0.00     0.010 A 
ATOM      8  C   UNL     1      -1.901   0.568  -1.065  1.00  0.00     0.010 A 
ATOM      9 BR   UNL     1      -5.987   0.279  -0.330  1.00  0.00    -0.051 Br
ENDBRANCH   1   3
BRANCH   1  10
ATOM     10  C   UNL     1       0.918  -0.986   0.073  1.00  0.00     0.000 A 
ATOM     11  C   UNL     1       1.417  -1.237  -1.185  1.00  0.00     0.012 A 
ATOM     12  C   UNL     1       1.168  -1.865   1.096  1.00  0.00     0.119 A 
ATOM     13  C   UNL     1       2.171  -2.387  -1.387  1.00  0.00     0.021 A 
ATOM     14  N   UNL     1       1.896  -2.993   0.937  1.00  0.00    -0.264 NA
ATOM     15  C   UNL     1       2.380  -3.225  -0.304  1.00  0.00     0.111 A 
ENDBRANCH   1  10
BRANCH   2  16
ATOM     16  C   UNL     1       2.173   1.624   0.957  1.00  0.00     0.112 C 
BRANCH  16  17
ATOM     17  N   UNL     1       2.715   2.616   0.030  1.00  0.00    -0.306 NA
ATOM     18  C   UNL     1       2.566   2.160  -1.351  1.00  0.00     0.105 C 
ATOM     19  C   UNL     1       4.121   2.884   0.332  1.00  0.00     0.105 C 
ENDBRANCH  16  17
ENDBRANCH   2  16
TORSDOF 4
