REMARK  Name = 2725
REMARK  7 active torsions:
REMARK  status: ('A' for Active; 'I' for Inactive)
REMARK    1  A    between atoms: N_2  and  C_6
REMARK    2  A    between atoms: N_2  and  C_12
REMARK    3  A    between atoms: N_2  and  C_13
REMARK    4  A    between atoms: C_4  and  C_5
REMARK    5  A    between atoms: C_4  and  C_7
REMARK    6  A    between atoms: C_4  and  C_8
REMARK    7  A    between atoms: C_5  and  C_6
REMARK                            x       y       z     vdW  Elec       q    Type
REMARK                         _______ _______ _______ _____ _____    ______ ____
ROOT
ATOM      1  C   UNL     1       3.861  -0.247   0.125  1.00  0.00    +0.069 C 
ENDROOT
BRANCH   1   3
ATOM      2 CL   UNL     1      -1.980   1.185  -0.536  1.00  0.00    -0.084 Cl
ATOM      3  C   UNL     1       2.386   0.104  -0.041  1.00  0.00    -0.038 A 
ATOM      4  C   UNL     1       1.891   1.326   0.443  1.00  0.00    +0.006 A 
ATOM      5  C   UNL     1       1.498  -0.776  -0.683  1.00  0.00    +0.006 A 
ATOM      6  C   UNL     1       0.544   1.657   0.290  1.00  0.00    +0.020 A 
ATOM      7  C   UNL     1       0.151  -0.444  -0.838  1.00  0.00    +0.020 A 
ATOM      8  C   UNL     1      -0.320   0.771  -0.349  1.00  0.00    +0.041 A 
ENDBRANCH   1   3
BRANCH   1  10
ATOM      9  N   UNL     1       4.718  -1.765  -1.650  1.00  0.00    -0.259 NA
ATOM     10  C   UNL     1       4.523  -0.485  -1.237  1.00  0.00    +0.049 A 
ATOM     11  C   UNL     1       4.867   0.608  -2.035  1.00  0.00    +0.024 A 
ATOM     12  C   UNL     1       5.452   0.381  -3.278  1.00  0.00    +0.003 A 
ATOM     13  C   UNL     1       5.284  -1.952  -2.862  1.00  0.00    +0.111 A 
ATOM     14  C   UNL     1       5.671  -0.922  -3.700  1.00  0.00    +0.020 A 
ENDBRANCH   1  10
BRANCH   1  15
ATOM     15  C   UNL     1       4.104  -1.431   1.097  1.00  0.00    +0.029 C 
BRANCH  15  16
ATOM     16  C   UNL     1       3.991  -1.067   2.590  1.00  0.00    +0.085 C 
BRANCH  16  17
ATOM     17  N   UNL     1       2.660  -0.662   3.061  1.00  0.00    -0.308 NA
ATOM     18  C   UNL     1       1.711  -1.778   3.048  1.00  0.00    +0.104 C 
ATOM     19  C   UNL     1       2.743  -0.100   4.411  1.00  0.00    +0.104 C 
ENDBRANCH  16  17
ENDBRANCH  15  16
ENDBRANCH   1  15
TORSDOF 5
