REMARK  Name = 19371515
REMARK  2 active torsions:
REMARK  status: ('A' for Active; 'I' for Inactive)
REMARK    1  A    between atoms: N_2  and  C_16
REMARK    2  A    between atoms: C_17  and  C_23
REMARK                            x       y       z     vdW  Elec       q    Type
REMARK                         _______ _______ _______ _____ _____    ______ ____
ROOT
ATOM      1  N   UNL     1       5.214   5.791  -5.358  1.00  0.00    -0.305 NA
ATOM      2  N   UNL     1       4.497   0.660  -1.945  1.00  0.00    -0.321 N 
ATOM      3  N   UNL     1       4.738   2.598  -0.886  1.00  0.00    -0.235 NA
ATOM      4  C   UNL     1       5.974   3.530  -3.528  1.00  0.00    -0.056 C 
ATOM      5  C   UNL     1       5.030   4.654  -3.091  1.00  0.00    +0.047 C 
ATOM      6  C   UNL     1       6.858   3.983  -4.687  1.00  0.00    +0.047 C 
ATOM      7  C   UNL     1       6.035   2.285  -2.978  1.00  0.00    +0.024 C 
ATOM      8  C   UNL     1       4.325   5.358  -4.267  1.00  0.00    +0.088 C 
ATOM      9  C   UNL     1       6.032   4.651  -5.798  1.00  0.00    +0.088 C 
ATOM     10  C   UNL     1       7.076   1.325  -3.435  1.00  0.00    -0.011 A 
ATOM     11  C   UNL     1       5.113   1.904  -1.948  1.00  0.00    +0.142 A 
ATOM     12  C   UNL     1       4.550  -0.409  -2.938  1.00  0.00    +0.128 C 
ATOM     13  C   UNL     1       5.225  -0.139  -4.286  1.00  0.00    +0.057 C 
ATOM     14  C   UNL     1       6.692   0.156  -4.109  1.00  0.00    -0.038 A 
ATOM     15  C   UNL     1       6.035   6.937  -4.967  1.00  0.00    +0.104 C 
ATOM     16  C   UNL     1       3.748   0.572  -0.778  1.00  0.00    +0.101 A 
ATOM     17  C   UNL     1       8.435   1.561  -3.173  1.00  0.00    +0.009 A 
ATOM     18  C   UNL     1       7.674  -0.732  -4.568  1.00  0.00    +0.004 A 
ATOM     19  C   UNL     1       3.905   1.795  -0.170  1.00  0.00    +0.142 A 
ATOM     20  C   UNL     1       9.404   0.668  -3.626  1.00  0.00    +0.001 A 
ATOM     21  C   UNL     1       9.025  -0.471  -4.331  1.00  0.00    +0.000 A 
ENDROOT
BRANCH  16  23
ATOM     22  O   UNL     1       2.878  -1.628  -0.893  1.00  0.00    -0.294 OA
ATOM     23  C   UNL     1       2.981  -0.553  -0.312  1.00  0.00    +0.278 C 
ENDBRANCH  16  23
TORSDOF 1
