REMARK  Name = 2247
REMARK  8 active torsions:
REMARK  status: ('A' for Active; 'I' for Inactive)
REMARK    1  A    between atoms: O_2  and  C_30
REMARK    2  A    between atoms: O_2  and  C_34
REMARK    3  A    between atoms: N_3  and  C_12
REMARK    4  A    between atoms: N_4  and  C_7
REMARK    5  A    between atoms: N_5  and  C_17
REMARK    6  A    between atoms: C_12  and  C_13
REMARK    7  A    between atoms: C_13  and  C_15
REMARK    8  A    between atoms: C_17  and  C_20
REMARK                            x       y       z     vdW  Elec       q    Type
REMARK                         _______ _______ _______ _____ _____    ______ ____
ROOT
ATOM      1  N   UNL     1      -3.175  -2.374  -1.392  1.00  0.00    -0.312 N 
ATOM      2  N   UNL     1      -4.565  -4.284  -1.932  1.00  0.00    -0.307 N 
ATOM      3  N   UNL     1      -4.818  -3.307   0.039  1.00  0.00    -0.214 NA
ATOM      4  C   UNL     1      -4.124  -3.290  -1.074  1.00  0.00    +0.197 A 
ATOM      5  C   UNL     1      -5.687  -4.865  -1.351  1.00  0.00    +0.070 A 
ATOM      6  C   UNL     1      -5.804  -4.234  -0.123  1.00  0.00    +0.091 A 
ATOM      7  C   UNL     1      -6.593  -5.845  -1.785  1.00  0.00    +0.028 A 
ATOM      8  C   UNL     1      -6.855  -4.576   0.738  1.00  0.00    +0.030 A 
ATOM      9  C   UNL     1      -7.629  -6.187  -0.910  1.00  0.00    +0.002 A 
ATOM     10  C   UNL     1      -7.756  -5.568   0.335  1.00  0.00    +0.002 A 
ATOM     11  H   UNL     1      -2.774  -2.394  -2.321  1.00  0.00    +0.149 HD
ENDROOT
BRANCH   1  13
ATOM     12  N   UNL     1      -3.077   0.770   0.690  1.00  0.00    -0.302 NA
ATOM     13  C   UNL     1      -2.204  -1.855  -0.409  1.00  0.00    +0.075 C 
ATOM     14  C   UNL     1      -2.678  -1.660   1.031  1.00  0.00    +0.037 C 
ATOM     15  C   UNL     1      -1.664  -0.513  -0.924  1.00  0.00    +0.037 C 
ATOM     16  C   UNL     1      -3.667  -0.502   1.168  1.00  0.00    +0.086 C 
ATOM     17  C   UNL     1      -2.676   0.621  -0.723  1.00  0.00    +0.086 C 
BRANCH  12  18
ATOM     18  C   UNL     1      -4.062   1.875   0.816  1.00  0.00    +0.089 C 
BRANCH  18  19
ATOM     19  C   UNL     1      -4.165   2.440   2.251  1.00  0.00    +0.050 C 
BRANCH  19  20
ATOM     20  C   UNL     1      -5.309   3.401   2.536  1.00  0.00    -0.046 A 
ATOM     21  C   UNL     1      -6.128   3.954   1.546  1.00  0.00    +0.007 A 
ATOM     22  C   UNL     1      -5.569   3.754   3.872  1.00  0.00    +0.007 A 
ATOM     23  C   UNL     1      -7.207   4.782   1.888  1.00  0.00    +0.046 A 
ATOM     24  C   UNL     1      -6.646   4.585   4.214  1.00  0.00    +0.046 A 
ATOM     25  C   UNL     1      -7.486   5.085   3.223  1.00  0.00    +0.120 A 
BRANCH  25  26
ATOM     26  O   UNL     1      -8.588   5.871   3.422  1.00  0.00    -0.495 OA
ATOM     27  C   UNL     1      -9.035   6.028   4.765  1.00  0.00    +0.277 C 
ENDBRANCH  25  26
ENDBRANCH  19  20
ENDBRANCH  18  19
ENDBRANCH  12  18
ENDBRANCH   1  13
BRANCH   2  28
ATOM     28  C   UNL     1      -4.090  -4.743  -3.237  1.00  0.00    +0.160 C 
BRANCH  28  30
ATOM     29  F   UNL     1       0.916  -2.869  -5.016  1.00  0.00    -0.205 F 
ATOM     30  C   UNL     1      -2.740  -4.275  -3.710  1.00  0.00    -0.027 A 
ATOM     31  C   UNL     1      -1.553  -4.712  -3.099  1.00  0.00    +0.008 A 
ATOM     32  C   UNL     1      -2.663  -3.379  -4.790  1.00  0.00    +0.008 A 
ATOM     33  C   UNL     1      -0.319  -4.229  -3.538  1.00  0.00    +0.038 A 
ATOM     34  C   UNL     1      -1.428  -2.909  -5.235  1.00  0.00    +0.038 A 
ATOM     35  C   UNL     1      -0.268  -3.337  -4.602  1.00  0.00    +0.123 A 
ENDBRANCH  28  30
ENDBRANCH   2  28
TORSDOF 7
