REMARK  Name = 2267
REMARK  4 active torsions:
REMARK  status: ('A' for Active; 'I' for Inactive)
REMARK    1  A    between atoms: N_3  and  C_13
REMARK    2  A    between atoms: N_4  and  C_6
REMARK    3  A    between atoms: C_15  and  C_17
REMARK    4  A    between atoms: C_17  and  C_20
REMARK                            x       y       z     vdW  Elec       q    Type
REMARK                         _______ _______ _______ _____ _____    ______ ____
ROOT
ATOM      1  O   UNL     1       5.714  -2.363   4.752  1.00  0.00    -0.266 OA
ATOM      2  N   UNL     1       4.573  -2.685   2.758  1.00  0.00    -0.226 N 
ATOM      3  N   UNL     1       4.099  -2.181   1.573  1.00  0.00    -0.172 NA
ATOM      4  C   UNL     1       5.347  -1.948   3.653  1.00  0.00    +0.275 A 
ATOM      5  C   UNL     1       5.728  -0.589   3.236  1.00  0.00    +0.050 A 
ATOM      6  C   UNL     1       4.421  -0.978   1.203  1.00  0.00    +0.074 A 
ATOM      7  C   UNL     1       5.273  -0.087   2.020  1.00  0.00    +0.011 A 
ATOM      8  C   UNL     1       6.530   0.199   4.074  1.00  0.00    +0.014 A 
ATOM      9  C   UNL     1       5.622   1.214   1.641  1.00  0.00    +0.010 A 
ATOM     10  C   UNL     1       6.876   1.493   3.692  1.00  0.00    +0.001 A 
ATOM     11  C   UNL     1       6.419   2.001   2.477  1.00  0.00    +0.001 A 
ENDROOT
BRANCH   2  13
ATOM     12  N   UNL     1       1.880  -6.262   2.008  1.00  0.00    -0.305 NA
ATOM     13  C   UNL     1       4.060  -4.011   3.170  1.00  0.00    +0.112 C 
ATOM     14  C   UNL     1       2.756  -3.855   3.969  1.00  0.00    +0.028 C 
ATOM     15  C   UNL     1       4.020  -5.003   2.000  1.00  0.00    +0.042 C 
ATOM     16  C   UNL     1       1.470  -4.044   3.171  1.00  0.00    +0.017 C 
ATOM     17  C   UNL     1       3.315  -6.321   2.314  1.00  0.00    +0.086 C 
ATOM     18  C   UNL     1       1.084  -5.515   2.988  1.00  0.00    +0.084 C 
ATOM     19  C   UNL     1       1.338  -7.617   1.864  1.00  0.00    +0.104 C 
ENDBRANCH   2  13
BRANCH   6  20
ATOM     20  C   UNL     1       3.862  -0.497  -0.132  1.00  0.00    +0.093 C 
BRANCH  20  22
ATOM     21 CL   UNL     1      -1.298   2.575   0.476  1.00  0.00    -0.084 Cl
ATOM     22  C   UNL     1       2.574   0.281   0.018  1.00  0.00    -0.041 A 
ATOM     23  C   UNL     1       2.487   1.620  -0.390  1.00  0.00    +0.005 A 
ATOM     24  C   UNL     1       1.435  -0.338   0.555  1.00  0.00    +0.005 A 
ATOM     25  C   UNL     1       1.292   2.330  -0.242  1.00  0.00    +0.020 A 
ATOM     26  C   UNL     1       0.238   0.369   0.697  1.00  0.00    +0.020 A 
ATOM     27  C   UNL     1       0.174   1.702   0.300  1.00  0.00    +0.041 A 
ENDBRANCH  20  22
ENDBRANCH   6  20
TORSDOF 3
