REMARK  Name = 185460
REMARK  14 active torsions:
REMARK  status: ('A' for Active; 'I' for Inactive)
REMARK    1  A    between atoms: O_1  and  C_19
REMARK    2  A    between atoms: O_1  and  C_33
REMARK    3  A    between atoms: O_2  and  C_32
REMARK    4  A    between atoms: N_4  and  C_13
REMARK    5  A    between atoms: N_5  and  C_16
REMARK    6  A    between atoms: C_7  and  C_12
REMARK    7  A    between atoms: C_13  and  C_14
REMARK    8  A    between atoms: C_14  and  C_18
REMARK    9  A    between atoms: C_16  and  C_19
REMARK   10  A    between atoms: C_24  and  C_25
REMARK   11  A    between atoms: C_25  and  C_30
REMARK   12  A    between atoms: C_25  and  C_31
REMARK   13  A    between atoms: C_25  and  C_32
REMARK   14  A    between atoms: C_33  and  C_34
REMARK                            x       y       z     vdW  Elec       q    Type
REMARK                         _______ _______ _______ _____ _____    ______ ____
ROOT
ATOM      1  N   UNL     1       5.081   4.495   4.310  1.00  0.00    -0.302 NA
ATOM      2  C   UNL     1       3.023   2.818   2.965  1.00  0.00    +0.058 C 
ATOM      3  C   UNL     1       2.976   4.347   2.992  1.00  0.00    +0.026 C 
ATOM      4  C   UNL     1       3.855   2.314   4.149  1.00  0.00    +0.026 C 
ATOM      5  C   UNL     1       4.368   4.971   3.112  1.00  0.00    +0.085 C 
ATOM      6  C   UNL     1       5.206   3.022   4.282  1.00  0.00    +0.085 C 
ENDROOT
BRANCH   2   9
ATOM      7  N   UNL     1       2.739   2.012   0.548  1.00  0.00    -0.325 N 
ATOM      8  N   UNL     1       4.805   2.108   1.336  1.00  0.00    -0.232 NA
ATOM      9  C   UNL     1       3.535   2.310   1.636  1.00  0.00    +0.114 A 
ATOM     10  C   UNL     1       3.554   1.622  -0.494  1.00  0.00    +0.069 A 
ATOM     11  C   UNL     1       4.836   1.685   0.035  1.00  0.00    +0.089 A 
ATOM     12  C   UNL     1       3.302   1.221  -1.813  1.00  0.00    +0.028 A 
ATOM     13  C   UNL     1       5.933   1.332  -0.765  1.00  0.00    +0.030 A 
ATOM     14  C   UNL     1       4.407   0.871  -2.598  1.00  0.00    +0.002 A 
ATOM     15  C   UNL     1       5.703   0.923  -2.084  1.00  0.00    +0.002 A 
BRANCH   7  16
ATOM     16  C   UNL     1       1.294   2.070   0.473  1.00  0.00    +0.151 C 
BRANCH  16  17
ATOM     17  C   UNL     1       0.657   0.699   0.660  1.00  0.00    +0.181 C 
BRANCH  17  18
ATOM     18  O   UNL     1      -0.749   0.819   0.438  1.00  0.00    -0.378 OA
BRANCH  18  19
ATOM     19  C   UNL     1      -1.388  -0.456   0.392  1.00  0.00    +0.156 C 
ATOM     20  C   UNL     1      -2.873  -0.236   0.179  1.00  0.00    +0.034 C 
ENDBRANCH  18  19
ENDBRANCH  17  18
ENDBRANCH  16  17
ENDBRANCH   7  16
ENDBRANCH   2   9
BRANCH   1  21
ATOM     21  C   UNL     1       6.444   5.071   4.383  1.00  0.00    +0.089 C 
BRANCH  21  22
ATOM     22  C   UNL     1       6.489   6.596   4.577  1.00  0.00    +0.050 C 
BRANCH  22  23
ATOM     23  C   UNL     1       7.916   7.083   4.692  1.00  0.00    -0.046 A 
ATOM     24  C   UNL     1       8.671   7.332   3.541  1.00  0.00    +0.004 A 
ATOM     25  C   UNL     1       8.516   7.252   5.941  1.00  0.00    +0.004 A 
ATOM     26  C   UNL     1      10.631   7.881   4.883  1.00  0.00    -0.031 A 
ATOM     27  C   UNL     1      10.008   7.729   3.635  1.00  0.00    +0.005 A 
ATOM     28  C   UNL     1       9.850   7.655   6.035  1.00  0.00    +0.005 A 
BRANCH  26  29
ATOM     29  C   UNL     1      12.112   8.270   5.034  1.00  0.00    +0.087 C 
ATOM     30  C   UNL     1      12.912   8.261   3.714  1.00  0.00    +0.027 C 
ATOM     31  C   UNL     1      12.176   9.696   5.614  1.00  0.00    +0.027 C 
BRANCH  29  33
ATOM     32  O   UNL     1      13.714   7.656   6.783  1.00  0.00    -0.250 OA
ATOM     33  C   UNL     1      12.869   7.308   5.973  1.00  0.00    +0.315 C 
BRANCH  33  34
ATOM     34  O   UNL     1      12.571   5.996   5.794  1.00  0.00    -0.480 OA
ATOM     35  H   UNL     1      11.859   5.832   5.143  1.00  0.00    +0.295 HD
ENDBRANCH  33  34
ENDBRANCH  29  33
ENDBRANCH  26  29
ENDBRANCH  22  23
ENDBRANCH  21  22
ENDBRANCH   1  21
TORSDOF 11
