REMARK  Name = 6834
REMARK  7 active torsions:
REMARK  status: ('A' for Active; 'I' for Inactive)
REMARK    1  A    between atoms: N_2  and  C_6
REMARK    2  A    between atoms: N_2  and  C_12
REMARK    3  A    between atoms: N_2  and  C_13
REMARK    4  A    between atoms: C_4  and  C_5
REMARK    5  A    between atoms: C_4  and  C_7
REMARK    6  A    between atoms: C_4  and  C_8
REMARK    7  A    between atoms: C_5  and  C_6
REMARK                            x       y       z     vdW  Elec       q    Type
REMARK                         _______ _______ _______ _____ _____    ______ ____
ROOT
ATOM      1  C   UNL     1       4.552   0.159  -0.033  1.00  0.00    +0.069 C 
ENDROOT
BRANCH   1   3
ATOM      2 BR   UNL     1      -1.521  -1.110   0.429  1.00  0.00    -0.050 Br
ATOM      3  C   UNL     1       3.060  -0.145   0.080  1.00  0.00    -0.038 A 
ATOM      4  C   UNL     1       2.533  -1.325  -0.469  1.00  0.00    +0.005 A 
ATOM      5  C   UNL     1       2.187   0.740   0.735  1.00  0.00    +0.005 A 
ATOM      6  C   UNL     1       1.170  -1.613  -0.366  1.00  0.00    +0.015 A 
ATOM      7  C   UNL     1       0.825   0.453   0.842  1.00  0.00    +0.015 A 
ATOM      8  C   UNL     1       0.323  -0.722   0.290  1.00  0.00    +0.018 A 
ENDBRANCH   1   3
BRANCH   1  10
ATOM      9  N   UNL     1       5.426   1.576   1.816  1.00  0.00    -0.259 NA
ATOM     10  C   UNL     1       5.186   0.320   1.354  1.00  0.00    +0.049 A 
ATOM     11  C   UNL     1       5.458  -0.812   2.124  1.00  0.00    +0.024 A 
ATOM     12  C   UNL     1       6.013  -0.654   3.391  1.00  0.00    +0.003 A 
ATOM     13  C   UNL     1       5.961   1.697   3.051  1.00  0.00    +0.111 A 
ATOM     14  C   UNL     1       6.274   0.624   3.866  1.00  0.00    +0.020 A 
ENDBRANCH   1  10
BRANCH   1  15
ATOM     15  C   UNL     1       4.865   1.369  -0.952  1.00  0.00    +0.029 C 
BRANCH  15  16
ATOM     16  C   UNL     1       4.790   1.064  -2.460  1.00  0.00    +0.085 C 
BRANCH  16  17
ATOM     17  N   UNL     1       3.459   0.729  -2.983  1.00  0.00    -0.308 NA
ATOM     18  C   UNL     1       2.551   1.878  -2.949  1.00  0.00    +0.104 C 
ATOM     19  C   UNL     1       3.558   0.220  -4.353  1.00  0.00    +0.104 C 
ENDBRANCH  16  17
ENDBRANCH  15  16
ENDBRANCH   1  15
TORSDOF 5
