REMARK  Name = 2678
REMARK  9 active torsions:
REMARK  status: ('A' for Active; 'I' for Inactive)
REMARK    1  A    between atoms: O_2  and  C_15
REMARK    2  A    between atoms: O_2  and  C_26
REMARK    3  A    between atoms: O_3  and  C_27
REMARK    4  A    between atoms: N_5  and  C_11
REMARK    5  A    between atoms: N_6  and  C_12
REMARK    6  A    between atoms: C_11  and  C_13
REMARK    7  A    between atoms: C_11  and  C_14
REMARK    8  A    between atoms: C_12  and  C_15
REMARK    9  A    between atoms: C_26  and  C_27
REMARK                            x       y       z     vdW  Elec       q    Type
REMARK                         _______ _______ _______ _____ _____    ______ ____
ROOT
ATOM      1  N   UNL     1       3.357  -0.736   1.229  1.00  0.00    -0.289 NA
ATOM      2  N   UNL     1       1.587  -1.643   3.471  1.00  0.00    -0.298 NA
ATOM      3  C   UNL     1       2.837  -2.114   1.309  1.00  0.00    +0.100 C 
ATOM      4  C   UNL     1       2.758   0.234   2.158  1.00  0.00    +0.100 C 
ATOM      5  C   UNL     1       1.593  -2.362   2.190  1.00  0.00    +0.100 C 
ATOM      6  C   UNL     1       1.666  -0.213   3.159  1.00  0.00    +0.100 C 
ENDROOT
BRANCH   1   7
ATOM      7  C   UNL     1       3.552  -0.250  -0.162  1.00  0.00    +0.117 C 
BRANCH   7   9
ATOM      8 CL   UNL     1       7.416  -3.454  -3.562  1.00  0.00    -0.084 Cl
ATOM      9  C   UNL     1       4.502  -1.141  -0.982  1.00  0.00    -0.026 A 
ATOM     10  C   UNL     1       4.187  -1.458  -2.317  1.00  0.00    +0.007 A 
ATOM     11  C   UNL     1       5.734  -1.579  -0.462  1.00  0.00    +0.007 A 
ATOM     12  C   UNL     1       5.081  -2.182  -3.108  1.00  0.00    +0.020 A 
ATOM     13  C   UNL     1       6.628  -2.301  -1.252  1.00  0.00    +0.020 A 
ATOM     14  C   UNL     1       6.300  -2.595  -2.575  1.00  0.00    +0.041 A 
ENDBRANCH   7   9
BRANCH   7  15
ATOM     15  C   UNL     1       4.033   1.207  -0.298  1.00  0.00    -0.026 A 
ATOM     16  C   UNL     1       5.115   1.704   0.449  1.00  0.00    +0.005 A 
ATOM     17  C   UNL     1       3.436   2.053  -1.251  1.00  0.00    +0.005 A 
ATOM     18  C   UNL     1       5.578   3.008   0.256  1.00  0.00    +0.000 A 
ATOM     19  C   UNL     1       3.905   3.356  -1.445  1.00  0.00    +0.000 A 
ATOM     20  C   UNL     1       4.977   3.831  -0.692  1.00  0.00    +0.000 A 
ENDBRANCH   7  15
ENDBRANCH   1   7
BRANCH   2  21
ATOM     21  C   UNL     1       2.648  -2.126   4.370  1.00  0.00    +0.112 C 
BRANCH  21  22
ATOM     22  C   UNL     1       2.639  -1.468   5.765  1.00  0.00    +0.176 C 
BRANCH  22  23
ATOM     23  O   UNL     1       3.292  -2.244   6.775  1.00  0.00    -0.367 OA
BRANCH  23  24
ATOM     24  C   UNL     1       4.663  -2.505   6.533  1.00  0.00    +0.280 C 
BRANCH  24  26
ATOM     25  O   UNL     1       6.546  -1.283   5.554  1.00  0.00    -0.248 OA
ATOM     26  C   UNL     1       5.619  -1.331   6.348  1.00  0.00    +0.331 C 
BRANCH  26  27
ATOM     27  O   UNL     1       5.388  -0.300   7.185  1.00  0.00    -0.479 OA
ATOM     28  H   UNL     1       6.098   0.342   6.980  1.00  0.00    +0.295 HD
ENDBRANCH  26  27
ENDBRANCH  24  26
ENDBRANCH  23  24
ENDBRANCH  22  23
ENDBRANCH  21  22
ENDBRANCH   2  21
TORSDOF 9
