REMARK  Name = 26987
REMARK  8 active torsions:
REMARK  status: ('A' for Active; 'I' for Inactive)
REMARK    1  A    between atoms: O_2  and  C_9
REMARK    2  A    between atoms: O_2  and  C_11
REMARK    3  A    between atoms: N_3  and  C_10
REMARK    4  A    between atoms: C_4  and  C_8
REMARK    5  A    between atoms: C_8  and  C_9
REMARK    6  A    between atoms: C_11  and  C_12
REMARK    7  A    between atoms: C_11  and  C_13
REMARK    8  A    between atoms: C_11  and  C_14
REMARK                            x       y       z     vdW  Elec       q    Type
REMARK                         _______ _______ _______ _____ _____    ______ ____
ROOT
ATOM      1  C   UNL     1       3.936   0.327   0.301  1.00  0.00    +0.116 C 
ATOM      2  C   UNL     1       4.655   1.687   0.451  1.00  0.00    +0.052 C 
ENDROOT
BRANCH   1   4
ATOM      3 CL   UNL     1       5.610  -4.181   4.011  1.00  0.00    -0.084 Cl
ATOM      4  C   UNL     1       4.379  -0.780   1.280  1.00  0.00    -0.012 A 
ATOM      5  C   UNL     1       5.387  -0.602   2.245  1.00  0.00    +0.008 A 
ATOM      6  C   UNL     1       3.749  -2.041   1.209  1.00  0.00    +0.008 A 
ATOM      7  C   UNL     1       5.756  -1.648   3.096  1.00  0.00    +0.020 A 
ATOM      8  C   UNL     1       4.121  -3.088   2.052  1.00  0.00    +0.020 A 
ATOM      9  C   UNL     1       5.127  -2.887   2.989  1.00  0.00    +0.041 A 
ENDBRANCH   1   4
BRANCH   1  10
ATOM     10  C   UNL     1       4.180  -0.134  -1.162  1.00  0.00    -0.012 A 
ATOM     11  C   UNL     1       5.459  -0.566  -1.571  1.00  0.00    +0.007 A 
ATOM     12  C   UNL     1       3.151  -0.143  -2.121  1.00  0.00    +0.007 A 
ATOM     13  C   UNL     1       5.700  -0.977  -2.885  1.00  0.00    +0.000 A 
ATOM     14  C   UNL     1       3.390  -0.563  -3.433  1.00  0.00    +0.000 A 
ATOM     15  C   UNL     1       4.666  -0.973  -3.816  1.00  0.00    +0.000 A 
ENDBRANCH   1  10
BRANCH   1  16
ATOM     16  O   UNL     1       2.513   0.521   0.472  1.00  0.00    -0.364 OA
BRANCH  16  17
ATOM     17  C   UNL     1       2.074   1.074   1.720  1.00  0.00    +0.163 C 
BRANCH  17  18
ATOM     18  C   UNL     1       0.549   0.986   1.728  1.00  0.00    +0.047 C 
BRANCH  18  20
ATOM     19  N   UNL     1      -0.430   2.848   3.271  1.00  0.00    -0.302 NA
ATOM     20  C   UNL     1      -0.218   1.412   2.991  1.00  0.00    +0.059 C 
ATOM     21  C   UNL     1       0.257   0.793   4.311  1.00  0.00    +0.020 C 
ATOM     22  C   UNL     1      -0.139   1.797   5.388  1.00  0.00    +0.017 C 
ATOM     23  C   UNL     1      -0.926   2.871   4.657  1.00  0.00    +0.084 C 
ATOM     24  C   UNL     1       0.744   3.694   3.117  1.00  0.00    +0.105 C 
ENDBRANCH  18  20
ENDBRANCH  17  18
ENDBRANCH  16  17
ENDBRANCH   1  16
TORSDOF 6
