REMARK  Name = 6726
REMARK  4 active torsions:
REMARK  status: ('A' for Active; 'I' for Inactive)
REMARK    1  A    between atoms: N_1  and  C_5
REMARK    2  A    between atoms: N_2  and  C_10
REMARK    3  A    between atoms: C_5  and  C_8
REMARK    4  A    between atoms: C_5  and  C_9
REMARK                            x       y       z     vdW  Elec       q    Type
REMARK                         _______ _______ _______ _____ _____    ______ ____
ROOT
ATOM      1  C   UNL     1       2.286   0.329   0.307  1.00  0.00    +0.117 C 
ENDROOT
BRANCH   1   2
ATOM      2  N   UNL     1       0.825   0.402   0.053  1.00  0.00    -0.289 NA
ATOM      3  N   UNL     1      -1.802   1.105  -1.175  1.00  0.00    -0.303 NA
ATOM      4  C   UNL     1       0.204   1.717   0.279  1.00  0.00    +0.100 C 
ATOM      5  C   UNL     1       0.433  -0.130  -1.261  1.00  0.00    +0.100 C 
ATOM      6  C   UNL     1      -1.335   1.657   0.114  1.00  0.00    +0.099 C 
ATOM      7  C   UNL     1      -1.106  -0.172  -1.431  1.00  0.00    +0.099 C 
ATOM      8  C   UNL     1      -1.602   2.053  -2.269  1.00  0.00    +0.105 C 
ENDBRANCH   1   2
BRANCH   1   9
ATOM      9  C   UNL     1       3.109   1.371  -0.464  1.00  0.00    -0.026 A 
ATOM     10  C   UNL     1       3.304   2.675   0.026  1.00  0.00    +0.005 A 
ATOM     11  C   UNL     1       3.688   1.032  -1.700  1.00  0.00    +0.005 A 
ATOM     12  C   UNL     1       4.051   3.608  -0.696  1.00  0.00    +0.000 A 
ATOM     13  C   UNL     1       4.434   1.967  -2.421  1.00  0.00    +0.000 A 
ATOM     14  C   UNL     1       4.615   3.254  -1.920  1.00  0.00    +0.000 A 
ENDBRANCH   1   9
BRANCH   1  15
ATOM     15  C   UNL     1       2.648   0.206   1.804  1.00  0.00    -0.026 A 
ATOM     16  C   UNL     1       1.683  -0.079   2.786  1.00  0.00    +0.005 A 
ATOM     17  C   UNL     1       3.995   0.265   2.216  1.00  0.00    +0.005 A 
ATOM     18  C   UNL     1       2.039  -0.236   4.129  1.00  0.00    +0.000 A 
ATOM     19  C   UNL     1       4.351   0.108   3.558  1.00  0.00    +0.000 A 
ATOM     20  C   UNL     1       3.372  -0.136   4.515  1.00  0.00    +0.000 A 
ENDBRANCH   1  15
TORSDOF 3
