REMARK  Name = 2913
REMARK  1 active torsions:
REMARK  status: ('A' for Active; 'I' for Inactive)
REMARK    1  A    between atoms: N_1  and  C_10
REMARK                            x       y       z     vdW  Elec       q    Type
REMARK                         _______ _______ _______ _____ _____    ______ ____
ROOT
ATOM      1  N   UNL     1       0.575   1.341  -0.338  1.00  0.00    -0.305 NA
ATOM      2  C   UNL     1      -0.728  -1.298   0.222  1.00  0.00    -0.059 C 
ATOM      3  C   UNL     1       0.712  -1.196  -0.267  1.00  0.00    +0.047 C 
ATOM      4  C   UNL     1      -1.530  -0.078  -0.213  1.00  0.00    +0.047 C 
ATOM      5  C   UNL     1       1.345   0.161   0.092  1.00  0.00    +0.088 C 
ATOM      6  C   UNL     1      -0.813   1.237   0.144  1.00  0.00    +0.088 C 
ATOM      7  C   UNL     1      -1.213  -2.308   0.995  1.00  0.00    -0.010 C 
ATOM      8  C   UNL     1      -2.601  -2.272   1.521  1.00  0.00    -0.010 A 
ATOM      9  C   UNL     1      -0.329  -3.405   1.466  1.00  0.00    -0.010 A 
ATOM     10  C   UNL     1       0.641   1.544  -1.783  1.00  0.00    +0.104 C 
ATOM     11  C   UNL     1      -2.828  -2.139   2.905  1.00  0.00    -0.017 A 
ATOM     12  C   UNL     1      -0.033  -3.533   2.838  1.00  0.00    -0.017 A 
ATOM     13  C   UNL     1      -3.689  -2.431   0.646  1.00  0.00    +0.009 A 
ATOM     14  C   UNL     1       0.164  -4.351   0.553  1.00  0.00    +0.009 A 
ATOM     15  C   UNL     1      -1.739  -1.997   3.892  1.00  0.00    +0.009 C 
ATOM     16  C   UNL     1      -0.536  -2.597   3.863  1.00  0.00    +0.009 C 
ATOM     17  C   UNL     1      -4.151  -2.099   3.373  1.00  0.00    +0.008 A 
ATOM     18  C   UNL     1       0.813  -4.572   3.254  1.00  0.00    +0.008 A 
ATOM     19  C   UNL     1      -4.996  -2.405   1.130  1.00  0.00    +0.001 A 
ATOM     20  C   UNL     1       0.991  -5.388   0.986  1.00  0.00    +0.001 A 
ATOM     21  C   UNL     1      -5.227  -2.232   2.492  1.00  0.00    +0.001 A 
ATOM     22  C   UNL     1       1.321  -5.494   2.334  1.00  0.00    +0.001 A 
ENDROOT
TORSDOF 0
