REMARK  Name = 124087
REMARK  0 active torsions:
REMARK  status: ('A' for Active; 'I' for Inactive)
REMARK                            x       y       z     vdW  Elec       q    Type
REMARK                         _______ _______ _______ _____ _____    ______ ____
ROOT
ATOM      1 CL   UNL     1       1.005  -0.187   0.044  1.00  0.00    -0.084 Cl
ATOM      2  N   UNL     1       9.145  -2.968  -2.304  1.00  0.00    -0.315 NA
ATOM      3  N   UNL     1       8.631   0.083   1.704  1.00  0.00    -0.255 NA
ATOM      4  C   UNL     1       7.678  -0.744  -1.028  1.00  0.00    -0.057 C 
ATOM      5  C   UNL     1       6.995  -0.102  -0.040  1.00  0.00    +0.007 C 
ATOM      6  C   UNL     1       7.051  -1.598  -2.123  1.00  0.00    +0.046 C 
ATOM      7  C   UNL     1       9.190  -0.717  -1.212  1.00  0.00    +0.046 C 
ATOM      8  C   UNL     1       7.683  -3.001  -2.142  1.00  0.00    +0.085 C 
ATOM      9  C   UNL     1       9.751  -2.147  -1.241  1.00  0.00    +0.085 C 
ATOM     10  C   UNL     1       5.514  -0.149  -0.026  1.00  0.00    -0.013 A 
ATOM     11  C   UNL     1       7.693   0.741   0.968  1.00  0.00    +0.075 A 
ATOM     12  C   UNL     1       5.560   2.265  -0.739  1.00  0.00    +0.040 C 
ATOM     13  C   UNL     1       4.802   1.009  -0.383  1.00  0.00    -0.038 A 
ATOM     14  C   UNL     1       6.278   2.872   0.473  1.00  0.00    +0.042 C 
ATOM     15  C   UNL     1       7.361   2.085   1.187  1.00  0.00    -0.021 A 
ATOM     16  C   UNL     1       4.827  -1.300   0.384  1.00  0.00    +0.010 A 
ATOM     17  C   UNL     1       3.401   0.988  -0.364  1.00  0.00    +0.024 A 
ATOM     18  C   UNL     1       8.069   2.759   2.199  1.00  0.00    +0.007 A 
ATOM     19  C   UNL     1       3.432  -1.312   0.400  1.00  0.00    +0.020 A 
ATOM     20  C   UNL     1       2.726  -0.172   0.021  1.00  0.00    +0.041 A 
ATOM     21  C   UNL     1       9.041   2.101   2.942  1.00  0.00    +0.020 A 
ATOM     22  C   UNL     1       9.281   0.772   2.663  1.00  0.00    +0.111 A 
ATOM     23  H   UNL     1       9.360  -2.536  -3.203  1.00  0.00    +0.122 HD
ENDROOT
TORSDOF 0
