REMARK  Name = 10660
REMARK  10 active torsions:
REMARK  status: ('A' for Active; 'I' for Inactive)
REMARK    1  A    between atoms: O_2  and  C_10
REMARK    2  A    between atoms: O_2  and  C_13
REMARK    3  A    between atoms: N_5  and  C_14
REMARK    4  A    between atoms: N_5  and  C_24
REMARK    5  A    between atoms: N_5  and  C_25
REMARK    6  A    between atoms: N_6  and  C_23
REMARK    7  A    between atoms: N_7  and  C_30
REMARK    8  A    between atoms: C_10  and  C_11
REMARK    9  A    between atoms: C_10  and  C_12
REMARK   10  A    between atoms: C_13  and  C_14
REMARK                            x       y       z     vdW  Elec       q    Type
REMARK                         _______ _______ _______ _____ _____    ______ ____
ROOT
ATOM      1 CL   UNL     1       3.638   1.083  -2.674  1.00  0.00    -0.043 Cl
ATOM      2  O   UNL     1       8.111   2.871   0.138  1.00  0.00    -0.265 OA
ATOM      3  O   UNL     1       9.275  -1.494   1.171  1.00  0.00    -0.246 OA
ATOM      4  N   UNL     1       7.368  -1.148  -0.069  1.00  0.00    -0.280 N 
ATOM      5  N   UNL     1       8.769   0.683   0.590  1.00  0.00    -0.262 N 
ATOM      6  N   UNL     1       5.790   1.710  -1.291  1.00  0.00    -0.323 N 
ATOM      7  N   UNL     1       5.392  -0.489  -1.351  1.00  0.00    -0.199 NA
ATOM      8  C   UNL     1       6.540  -0.227  -0.664  1.00  0.00    +0.169 A 
ATOM      9  C   UNL     1       6.806   1.109  -0.608  1.00  0.00    +0.150 A 
ATOM     10  C   UNL     1       7.929   1.662   0.051  1.00  0.00    +0.282 A 
ATOM     11  C   UNL     1       8.518  -0.707   0.597  1.00  0.00    +0.333 A 
ATOM     12  C   UNL     1       7.041  -2.562  -0.114  1.00  0.00    +0.155 C 
ATOM     13  C   UNL     1       9.948   1.170   1.277  1.00  0.00    +0.157 C 
ATOM     14  C   UNL     1       4.984   0.701  -1.724  1.00  0.00    +0.203 A 
ATOM     15  H   UNL     1       5.666   2.699  -1.464  1.00  0.00    +0.168 HD
ENDROOT
TORSDOF 0
REMARK  Name = 10660
REMARK  10 active torsions:
REMARK  status: ('A' for Active; 'I' for Inactive)
REMARK    1  A    between atoms: O_2  and  C_10
REMARK    2  A    between atoms: O_2  and  C_13
REMARK    3  A    between atoms: N_5  and  C_14
REMARK    4  A    between atoms: N_5  and  C_24
REMARK    5  A    between atoms: N_5  and  C_25
REMARK    6  A    between atoms: N_6  and  C_23
REMARK    7  A    between atoms: N_7  and  C_30
REMARK    8  A    between atoms: C_10  and  C_11
REMARK    9  A    between atoms: C_10  and  C_12
REMARK   10  A    between atoms: C_13  and  C_14
REMARK                            x       y       z     vdW  Elec       q    Type
REMARK                         _______ _______ _______ _____ _____    ______ ____
ROOT
ATOM      1  C   UNL     1       0.013   1.381   0.076  1.00  0.00    +0.178 C 
ENDROOT
BRANCH   1   2
ATOM      2  C   UNL     1       0.165   1.854  -1.369  1.00  0.00    -0.015 A 
ATOM      3  C   UNL     1      -0.244   1.060  -2.452  1.00  0.00    +0.006 A 
ATOM      4  C   UNL     1       0.665   3.142  -1.638  1.00  0.00    +0.006 A 
ATOM      5  C   UNL     1      -0.128   1.526  -3.764  1.00  0.00    +0.000 A 
ATOM      6  C   UNL     1       0.776   3.611  -2.949  1.00  0.00    +0.000 A 
ATOM      7  C   UNL     1       0.388   2.798  -4.012  1.00  0.00    +0.000 A 
ENDBRANCH   1   2
BRANCH   1   8
ATOM      8  C   UNL     1      -1.341   1.796   0.640  1.00  0.00    -0.015 A 
ATOM      9  C   UNL     1      -1.504   3.069   1.213  1.00  0.00    +0.006 A 
ATOM     10  C   UNL     1      -2.463   0.960   0.529  1.00  0.00    +0.006 A 
ATOM     11  C   UNL     1      -2.762   3.504   1.633  1.00  0.00    +0.000 A 
ATOM     12  C   UNL     1      -3.718   1.395   0.953  1.00  0.00    +0.000 A 
ATOM     13  C   UNL     1      -3.871   2.672   1.490  1.00  0.00    +0.000 A 
ENDBRANCH   1   8
BRANCH   1  14
ATOM     14  O   UNL     1       0.154  -0.047   0.195  1.00  0.00    -0.366 OA
BRANCH  14  15
ATOM     15  C   UNL     1       1.517  -0.451   0.350  1.00  0.00    +0.176 C 
BRANCH  15  16
ATOM     16  C   UNL     1       1.628  -1.969   0.589  1.00  0.00    +0.112 C 
BRANCH  16  17
ATOM     17  N   UNL     1       1.480  -2.362   2.009  1.00  0.00    -0.306 NA
ATOM     18  C   UNL     1       0.085  -2.243   2.445  1.00  0.00    +0.104 C 
ATOM     19  C   UNL     1       1.935  -3.742   2.191  1.00  0.00    +0.104 C 
ENDBRANCH  16  17
ENDBRANCH  15  16
ENDBRANCH  14  15
ENDBRANCH   1  14
TORSDOF 6
