REMARK  Name = 3100
REMARK  8 active torsions:
REMARK  status: ('A' for Active; 'I' for Inactive)
REMARK    1  A    between atoms: O_1  and  C_3
REMARK    2  A    between atoms: O_1  and  C_6
REMARK    3  A    between atoms: N_2  and  C_7
REMARK    4  A    between atoms: N_2  and  C_12
REMARK    5  A    between atoms: N_2  and  C_13
REMARK    6  A    between atoms: C_3  and  C_4
REMARK    7  A    between atoms: C_3  and  C_5
REMARK    8  A    between atoms: C_6  and  C_7
REMARK                            x       y       z     vdW  Elec       q    Type
REMARK                         _______ _______ _______ _____ _____    ______ ____
ROOT
ATOM      1  C   UNL     1       0.578  -0.829   1.379  1.00  0.00    +0.178 C 
ENDROOT
BRANCH   1   2
ATOM      2  C   UNL     1       1.175  -2.226   1.507  1.00  0.00    -0.015 A 
ATOM      3  C   UNL     1       2.564  -2.428   1.461  1.00  0.00    +0.006 A 
ATOM      4  C   UNL     1       0.337  -3.339   1.684  1.00  0.00    +0.006 A 
ATOM      5  C   UNL     1       3.098  -3.711   1.589  1.00  0.00    +0.000 A 
ATOM      6  C   UNL     1       0.875  -4.621   1.810  1.00  0.00    +0.000 A 
ATOM      7  C   UNL     1       2.255  -4.807   1.761  1.00  0.00    +0.000 A 
ENDBRANCH   1   2
BRANCH   1   8
ATOM      8  C   UNL     1       0.956   0.076   2.558  1.00  0.00    -0.015 A 
ATOM      9  C   UNL     1       1.576   1.322   2.370  1.00  0.00    +0.006 A 
ATOM     10  C   UNL     1       0.656  -0.320   3.876  1.00  0.00    +0.006 A 
ATOM     11  C   UNL     1       1.898   2.138   3.458  1.00  0.00    +0.000 A 
ATOM     12  C   UNL     1       0.982   0.495   4.964  1.00  0.00    +0.000 A 
ATOM     13  C   UNL     1       1.601   1.725   4.755  1.00  0.00    +0.000 A 
ENDBRANCH   1   8
BRANCH   1  14
ATOM     14  O   UNL     1       0.989  -0.227   0.142  1.00  0.00    -0.366 OA
BRANCH  14  15
ATOM     15  C   UNL     1       0.453  -0.810  -1.047  1.00  0.00    +0.176 C 
BRANCH  15  16
ATOM     16  C   UNL     1      -1.086  -0.788  -1.179  1.00  0.00    +0.112 C 
BRANCH  16  17
ATOM     17  N   UNL     1      -1.740   0.497  -0.864  1.00  0.00    -0.306 NA
ATOM     18  C   UNL     1      -1.274   1.580  -1.730  1.00  0.00    +0.104 C 
ATOM     19  C   UNL     1      -3.195   0.366  -0.959  1.00  0.00    +0.104 C 
ENDBRANCH  16  17
ENDBRANCH  15  16
ENDBRANCH  14  15
ENDBRANCH   1  14
TORSDOF 6
