REMARK  Name = 3162
REMARK  9 active torsions:
REMARK  status: ('A' for Active; 'I' for Inactive)
REMARK    1  A    between atoms: O_1  and  C_4
REMARK    2  A    between atoms: O_1  and  C_8
REMARK    3  A    between atoms: N_2  and  C_9
REMARK    4  A    between atoms: N_2  and  C_17
REMARK    5  A    between atoms: N_2  and  C_18
REMARK    6  A    between atoms: C_4  and  C_5
REMARK    7  A    between atoms: C_4  and  C_6
REMARK    8  A    between atoms: C_4  and  C_7
REMARK    9  A    between atoms: C_8  and  C_9
REMARK                            x       y       z     vdW  Elec       q    Type
REMARK                         _______ _______ _______ _____ _____    ______ ____
ROOT
ATOM      1  C   UNL     1       0.411   1.012  -0.844  1.00  0.00    +0.133 C 
ATOM      2  C   UNL     1      -1.106   0.720  -0.774  1.00  0.00    +0.053 C 
ENDROOT
BRANCH   1   4
ATOM      3  N   UNL     1       0.143   1.244  -3.322  1.00  0.00    -0.257 NA
ATOM      4  C   UNL     1       0.868   0.706  -2.299  1.00  0.00    +0.077 A 
ATOM      5  C   UNL     1       2.010  -0.062  -2.548  1.00  0.00    +0.026 A 
ATOM      6  C   UNL     1       2.410  -0.291  -3.864  1.00  0.00    +0.003 A 
ATOM      7  C   UNL     1       0.557   1.006  -4.587  1.00  0.00    +0.111 A 
ATOM      8  C   UNL     1       1.670   0.249  -4.905  1.00  0.00    +0.020 A 
ENDBRANCH   1   4
BRANCH   1   9
ATOM      9  C   UNL     1       0.804   2.458  -0.486  1.00  0.00    -0.010 A 
ATOM     10  C   UNL     1       2.148   2.764  -0.188  1.00  0.00    +0.007 A 
ATOM     11  C   UNL     1      -0.124   3.513  -0.469  1.00  0.00    +0.007 A 
ATOM     12  C   UNL     1       2.541   4.064   0.133  1.00  0.00    +0.000 A 
ATOM     13  C   UNL     1       0.271   4.815  -0.144  1.00  0.00    +0.000 A 
ATOM     14  C   UNL     1       1.601   5.089   0.159  1.00  0.00    +0.000 A 
ENDBRANCH   1   9
BRANCH   1  15
ATOM     15  O   UNL     1       1.104   0.096   0.051  1.00  0.00    -0.362 OA
BRANCH  15  16
ATOM     16  C   UNL     1       0.664   0.083   1.415  1.00  0.00    +0.177 C 
BRANCH  16  17
ATOM     17  C   UNL     1       1.654  -0.765   2.231  1.00  0.00    +0.112 C 
BRANCH  17  18
ATOM     18  N   UNL     1       1.282  -0.926   3.650  1.00  0.00    -0.306 NA
ATOM     19  C   UNL     1       2.087  -1.986   4.263  1.00  0.00    +0.104 C 
ATOM     20  C   UNL     1       1.454   0.319   4.402  1.00  0.00    +0.104 C 
ENDBRANCH  17  18
ENDBRANCH  16  17
ENDBRANCH  15  16
ENDBRANCH   1  15
TORSDOF 6
