REMARK  Name = 3191
REMARK  13 active torsions:
REMARK  status: ('A' for Active; 'I' for Inactive)
REMARK    1  A    between atoms: O_1  and  C_4
REMARK    2  A    between atoms: O_1  and  C_11
REMARK    3  A    between atoms: N_3  and  C_9
REMARK    4  A    between atoms: C_9  and  C_10
REMARK    5  A    between atoms: C_10  and  C_12
REMARK    6  A    between atoms: C_11  and  C_13
REMARK    7  A    between atoms: C_11  and  C_14
REMARK    8  A    between atoms: C_12  and  C_15
REMARK    9  A    between atoms: C_15  and  C_17
REMARK   10  A    between atoms: C_16  and  C_18
REMARK   11  A    between atoms: C_16  and  C_23
REMARK   12  A    between atoms: C_16  and  C_24
REMARK   13  A    between atoms: C_16  and  C_25
REMARK                            x       y       z     vdW  Elec       q    Type
REMARK                         _______ _______ _______ _____ _____    ______ ____
ROOT
ATOM      1  N   UNL     1       0.859   3.288   0.124  1.00  0.00    -0.302 NA
ATOM      2  C   UNL     1      -0.377   0.709  -0.583  1.00  0.00    +0.122 C 
ATOM      3  C   UNL     1       0.177   1.678  -1.629  1.00  0.00    +0.047 C 
ATOM      4  C   UNL     1      -0.729   1.475   0.693  1.00  0.00    +0.047 C 
ATOM      5  C   UNL     1       1.309   2.540  -1.063  1.00  0.00    +0.087 C 
ATOM      6  C   UNL     1       0.436   2.342   1.174  1.00  0.00    +0.087 C 
ENDROOT
BRANCH   2   7
ATOM      7  O   UNL     1       0.615  -0.309  -0.394  1.00  0.00    -0.364 OA
BRANCH   7   8
ATOM      8  C   UNL     1       0.256  -1.428   0.434  1.00  0.00    +0.179 C 
BRANCH   8   9
ATOM      9  C   UNL     1      -1.002  -2.131  -0.058  1.00  0.00    -0.014 A 
ATOM     10  C   UNL     1      -1.078  -2.674  -1.351  1.00  0.00    +0.006 A 
ATOM     11  C   UNL     1      -2.125  -2.225   0.780  1.00  0.00    +0.006 A 
ATOM     12  C   UNL     1      -2.250  -3.287  -1.794  1.00  0.00    +0.000 A 
ATOM     13  C   UNL     1      -3.297  -2.835   0.333  1.00  0.00    +0.000 A 
ATOM     14  C   UNL     1      -3.360  -3.363  -0.955  1.00  0.00    +0.000 A 
ENDBRANCH   8   9
BRANCH   8  15
ATOM     15  C   UNL     1       1.440  -2.391   0.543  1.00  0.00    -0.014 A 
ATOM     16  C   UNL     1       2.531  -2.333  -0.340  1.00  0.00    +0.006 A 
ATOM     17  C   UNL     1       1.441  -3.387   1.536  1.00  0.00    +0.006 A 
ATOM     18  C   UNL     1       3.589  -3.238  -0.232  1.00  0.00    +0.000 A 
ATOM     19  C   UNL     1       2.498  -4.294   1.642  1.00  0.00    +0.000 A 
ATOM     20  C   UNL     1       3.572  -4.217   0.758  1.00  0.00    +0.000 A 
ENDBRANCH   8  15
ENDBRANCH   7   8
ENDBRANCH   2   7
BRANCH   1  21
ATOM     21  C   UNL     1       1.922   4.170   0.645  1.00  0.00    +0.085 C 
BRANCH  21  22
ATOM     22  C   UNL     1       2.199   5.400  -0.238  1.00  0.00    +0.023 C 
BRANCH  22  23
ATOM     23  C   UNL     1       0.954   6.219  -0.593  1.00  0.00    +0.081 C 
BRANCH  23  25
ATOM     24  O   UNL     1       0.854   6.990   1.692  1.00  0.00    -0.292 OA
ATOM     25  C   UNL     1       0.270   6.833   0.619  1.00  0.00    +0.163 C 
BRANCH  25  26
ATOM     26  C   UNL     1      -1.134   7.331   0.482  1.00  0.00    +0.017 A 
ATOM     27  C   UNL     1      -3.767   8.402   0.305  1.00  0.00    -0.042 A 
ATOM     28  C   UNL     1      -1.799   7.784   1.623  1.00  0.00    +0.011 A 
ATOM     29  C   UNL     1      -1.794   7.390  -0.747  1.00  0.00    +0.011 A 
ATOM     30  C   UNL     1      -3.098   8.305   1.538  1.00  0.00    +0.005 A 
ATOM     31  C   UNL     1      -3.095   7.909  -0.827  1.00  0.00    +0.005 A 
BRANCH  27  32
ATOM     32  C   UNL     1      -5.182   9.001   0.188  1.00  0.00    -0.013 C 
ATOM     33  C   UNL     1      -5.536   9.943   1.361  1.00  0.00    +0.015 C 
ATOM     34  C   UNL     1      -5.344   9.832  -1.108  1.00  0.00    +0.015 C 
ATOM     35  C   UNL     1      -6.211   7.856   0.168  1.00  0.00    +0.015 C 
ENDBRANCH  27  32
ENDBRANCH  25  26
ENDBRANCH  23  25
ENDBRANCH  22  23
ENDBRANCH  21  22
ENDBRANCH   1  21
TORSDOF 10
