REMARK  Name = 3219
REMARK  6 active torsions:
REMARK  status: ('A' for Active; 'I' for Inactive)
REMARK    1  A    between atoms: O_1  and  C_16
REMARK    2  A    between atoms: O_1  and  C_21
REMARK    3  A    between atoms: N_3  and  C_15
REMARK    4  A    between atoms: N_4  and  C_13
REMARK    5  A    between atoms: C_13  and  C_16
REMARK    6  A    between atoms: C_21  and  C_22
REMARK                            x       y       z     vdW  Elec       q    Type
REMARK                         _______ _______ _______ _____ _____    ______ ____
ROOT
ATOM      1  N   UNL     1       2.112  -2.016   4.127  1.00  0.00    -0.300 N 
ATOM      2  N   UNL     1       0.718  -4.733   5.122  1.00  0.00    -0.304 NA
ATOM      3  N   UNL     1       2.474  -0.116   2.711  1.00  0.00    -0.309 N 
ATOM      4  N   UNL     1       4.241  -1.357   3.235  1.00  0.00    -0.214 NA
ATOM      5  C   UNL     1       2.703  -2.433   5.416  1.00  0.00    +0.109 C 
ATOM      6  C   UNL     1       1.593  -3.165   3.353  1.00  0.00    +0.123 C 
ATOM      7  C   UNL     1       1.597  -2.672   6.432  1.00  0.00    +0.034 C 
ATOM      8  C   UNL     1       0.366  -3.829   4.017  1.00  0.00    +0.103 C 
ATOM      9  C   UNL     1       0.976  -4.070   6.408  1.00  0.00    +0.085 C 
ATOM     10  C   UNL     1       2.946  -1.218   3.395  1.00  0.00    +0.199 A 
ATOM     11  C   UNL     1       3.536   0.455   2.041  1.00  0.00    +0.070 A 
ATOM     12  C   UNL     1       4.620  -0.349   2.389  1.00  0.00    +0.091 A 
ATOM     13  C   UNL     1      -0.307  -5.767   5.302  1.00  0.00    +0.104 C 
ATOM     14  C   UNL     1       3.666   1.559   1.186  1.00  0.00    +0.028 A 
ATOM     15  C   UNL     1       5.890  -0.064   1.862  1.00  0.00    +0.030 A 
ATOM     16  C   UNL     1       4.937   1.819   0.658  1.00  0.00    +0.002 A 
ATOM     17  C   UNL     1       6.033   1.020   0.986  1.00  0.00    +0.002 A 
ENDROOT
BRANCH   3  18
ATOM     18  C   UNL     1       1.090   0.316   2.649  1.00  0.00    +0.153 C 
BRANCH  18  19
ATOM     19  C   UNL     1       0.531   0.844   3.972  1.00  0.00    +0.181 C 
BRANCH  19  20
ATOM     20  O   UNL     1       1.120   2.081   4.383  1.00  0.00    -0.378 OA
BRANCH  20  21
ATOM     21  C   UNL     1       0.583   3.223   3.722  1.00  0.00    +0.156 C 
ATOM     22  C   UNL     1       1.227   4.471   4.302  1.00  0.00    +0.034 C 
ENDBRANCH  20  21
ENDBRANCH  19  20
ENDBRANCH  18  19
ENDBRANCH   3  18
TORSDOF 4
