REMARK  Name = 3348
REMARK  15 active torsions:
REMARK  status: ('A' for Active; 'I' for Inactive)
REMARK    1  A    between atoms: O_1  and  C_9
REMARK    2  A    between atoms: O_2  and  C_21
REMARK    3  A    between atoms: O_3  and  C_37
REMARK    4  A    between atoms: N_5  and  C_12
REMARK    5  A    between atoms: C_6  and  C_9
REMARK    6  A    between atoms: C_9  and  C_13
REMARK    7  A    between atoms: C_9  and  C_14
REMARK    8  A    between atoms: C_12  and  C_15
REMARK    9  A    between atoms: C_15  and  C_16
REMARK   10  A    between atoms: C_16  and  C_21
REMARK   11  A    between atoms: C_21  and  C_26
REMARK   12  A    between atoms: C_31  and  C_32
REMARK   13  A    between atoms: C_31  and  C_35
REMARK   14  A    between atoms: C_31  and  C_36
REMARK   15  A    between atoms: C_31  and  C_37
REMARK                            x       y       z     vdW  Elec       q    Type
REMARK                         _______ _______ _______ _____ _____    ______ ____
ROOT
ATOM      1  N   UNL     1       4.064   2.384   1.523  1.00  0.00    -0.302 NA
ATOM      2  C   UNL     1       1.420   0.944   1.767  1.00  0.00    +0.032 C 
ATOM      3  C   UNL     1       1.669   2.405   2.211  1.00  0.00    +0.022 C 
ATOM      4  C   UNL     1       2.798   0.242   1.703  1.00  0.00    +0.022 C 
ATOM      5  C   UNL     1       2.794   3.126   1.467  1.00  0.00    +0.085 C 
ATOM      6  C   UNL     1       3.872   1.033   0.955  1.00  0.00    +0.085 C 
ENDROOT
BRANCH   2   7
ATOM      7  C   UNL     1       0.538   0.787   0.462  1.00  0.00    +0.119 C 
BRANCH   7   8
ATOM      8  C   UNL     1      -0.872   1.427   0.525  1.00  0.00    -0.011 A 
ATOM      9  C   UNL     1      -1.566   1.698  -0.675  1.00  0.00    +0.007 A 
ATOM     10  C   UNL     1      -1.545   1.685   1.732  1.00  0.00    +0.007 A 
ATOM     11  C   UNL     1      -2.850   2.249  -0.664  1.00  0.00    +0.000 A 
ATOM     12  C   UNL     1      -2.833   2.229   1.741  1.00  0.00    +0.000 A 
ATOM     13  C   UNL     1      -3.484   2.516   0.545  1.00  0.00    +0.000 A 
ENDBRANCH   7   8
BRANCH   7  14
ATOM     14  C   UNL     1       0.379  -0.704   0.093  1.00  0.00    -0.011 A 
ATOM     15  C   UNL     1      -0.366  -1.573   0.914  1.00  0.00    +0.007 A 
ATOM     16  C   UNL     1       0.953  -1.240  -1.075  1.00  0.00    +0.007 A 
ATOM     17  C   UNL     1      -0.536  -2.917   0.577  1.00  0.00    +0.000 A 
ATOM     18  C   UNL     1       0.786  -2.586  -1.409  1.00  0.00    +0.000 A 
ATOM     19  C   UNL     1       0.042  -3.424  -0.583  1.00  0.00    +0.000 A 
ENDBRANCH   7  14
BRANCH   7  20
ATOM     20  O   UNL     1       1.247   1.449  -0.597  1.00  0.00    -0.379 OA
ATOM     21  H   UNL     1       0.877   2.343  -0.680  1.00  0.00    +0.211 HD
ENDBRANCH   7  20
ENDBRANCH   2   7
BRANCH   1  22
ATOM     22  C   UNL     1       5.115   3.085   0.752  1.00  0.00    +0.084 C 
BRANCH  22  23
ATOM     23  C   UNL     1       5.559   4.428   1.352  1.00  0.00    +0.018 C 
BRANCH  23  24
ATOM     24  C   UNL     1       5.893   4.442   2.854  1.00  0.00    +0.037 C 
BRANCH  24  25
ATOM     25  C   UNL     1       6.963   3.443   3.336  1.00  0.00    +0.145 C 
BRANCH  25  26
ATOM     26  C   UNL     1       8.298   3.608   2.632  1.00  0.00    -0.019 A 
ATOM     27  C   UNL     1       8.777   2.648   1.736  1.00  0.00    +0.006 A 
ATOM     28  C   UNL     1       9.077   4.753   2.844  1.00  0.00    +0.006 A 
ATOM     29  C   UNL     1      10.746   3.997   1.219  1.00  0.00    -0.031 A 
ATOM     30  C   UNL     1       9.976   2.839   1.040  1.00  0.00    +0.005 A 
ATOM     31  C   UNL     1      10.281   4.943   2.152  1.00  0.00    +0.005 A 
BRANCH  29  32
ATOM     32  C   UNL     1      12.077   4.225   0.476  1.00  0.00    +0.087 C 
ATOM     33  C   UNL     1      12.369   3.170  -0.614  1.00  0.00    +0.027 C 
ATOM     34  C   UNL     1      12.041   5.606  -0.221  1.00  0.00    +0.027 C 
BRANCH  32  36
ATOM     35  O   UNL     1      14.337   4.788   1.210  1.00  0.00    -0.250 OA
ATOM     36  C   UNL     1      13.290   4.189   1.426  1.00  0.00    +0.315 C 
BRANCH  36  37
ATOM     37  O   UNL     1      13.167   3.381   2.505  1.00  0.00    -0.480 OA
ATOM     38  H   UNL     1      12.291   2.956   2.598  1.00  0.00    +0.295 HD
ENDBRANCH  36  37
ENDBRANCH  32  36
ENDBRANCH  29  32
ENDBRANCH  25  26
BRANCH  25  39
ATOM     39  O   UNL     1       6.500   2.095   3.255  1.00  0.00    -0.387 OA
ATOM     40  H   UNL     1       5.553   2.114   3.009  1.00  0.00    +0.210 HD
ENDBRANCH  25  39
ENDBRANCH  24  25
ENDBRANCH  23  24
ENDBRANCH  22  23
ENDBRANCH   1  22
TORSDOF 13
