REMARK  Name = 3658
REMARK  9 active torsions:
REMARK  status: ('A' for Active; 'I' for Inactive)
REMARK    1  A    between atoms: O_2  and  C_14
REMARK    2  A    between atoms: O_2  and  C_25
REMARK    3  A    between atoms: O_3  and  C_26
REMARK    4  A    between atoms: N_4  and  C_10
REMARK    5  A    between atoms: N_5  and  C_11
REMARK    6  A    between atoms: C_10  and  C_12
REMARK    7  A    between atoms: C_10  and  C_13
REMARK    8  A    between atoms: C_11  and  C_14
REMARK    9  A    between atoms: C_25  and  C_26
REMARK                            x       y       z     vdW  Elec       q    Type
REMARK                         _______ _______ _______ _____ _____    ______ ____
ROOT
ATOM      1  C   UNL     1       3.334  -0.195  -0.361  1.00  0.00    +0.117 C 
ENDROOT
BRANCH   1   3
ATOM      2 CL   UNL     1      -2.560  -0.298  -1.799  1.00  0.00    -0.084 Cl
ATOM      3  C   UNL     1       1.845  -0.246  -0.725  1.00  0.00    -0.026 A 
ATOM      4  C   UNL     1       1.043   0.896  -0.546  1.00  0.00    +0.007 A 
ATOM      5  C   UNL     1       1.244  -1.399  -1.263  1.00  0.00    +0.007 A 
ATOM      6  C   UNL     1      -0.314   0.881  -0.879  1.00  0.00    +0.020 A 
ATOM      7  C   UNL     1      -0.113  -1.415  -1.595  1.00  0.00    +0.020 A 
ATOM      8  C   UNL     1      -0.887  -0.276  -1.398  1.00  0.00    +0.041 A 
ENDBRANCH   1   3
BRANCH   1   9
ATOM      9  N   UNL     1       3.660  -0.738   0.977  1.00  0.00    -0.289 NA
ATOM     10  N   UNL     1       1.853  -1.548   3.250  1.00  0.00    -0.298 NA
ATOM     11  C   UNL     1       3.314  -2.141   1.238  1.00  0.00    +0.100 C 
ATOM     12  C   UNL     1       3.367   0.148   2.109  1.00  0.00    +0.100 C 
ATOM     13  C   UNL     1       2.008  -2.382   2.038  1.00  0.00    +0.100 C 
ATOM     14  C   UNL     1       2.044  -0.140   2.853  1.00  0.00    +0.100 C 
BRANCH  10  15
ATOM     15  C   UNL     1       2.766  -2.004   4.314  1.00  0.00    +0.112 C 
BRANCH  15  16
ATOM     16  C   UNL     1       2.608  -1.261   5.652  1.00  0.00    +0.175 C 
BRANCH  16  17
ATOM     17  O   UNL     1       3.197  -1.943   6.766  1.00  0.00    -0.376 OA
BRANCH  17  18
ATOM     18  C   UNL     1       4.602  -2.207   6.684  1.00  0.00    +0.187 C 
BRANCH  18  19
ATOM     19  C   UNL     1       5.438  -0.930   6.736  1.00  0.00    +0.184 C 
BRANCH  19  20
ATOM     20  O   UNL     1       5.105  -0.171   7.896  1.00  0.00    -0.393 OA
ATOM     21  H   UNL     1       4.145  -0.291   8.033  1.00  0.00    +0.209 HD
ENDBRANCH  19  20
ENDBRANCH  18  19
ENDBRANCH  17  18
ENDBRANCH  16  17
ENDBRANCH  15  16
ENDBRANCH  10  15
ENDBRANCH   1   9
BRANCH   1  22
ATOM     22  C   UNL     1       4.293  -0.692  -1.466  1.00  0.00    -0.026 A 
ATOM     23  C   UNL     1       4.000  -0.490  -2.829  1.00  0.00    +0.005 A 
ATOM     24  C   UNL     1       5.548  -1.246  -1.149  1.00  0.00    +0.005 A 
ATOM     25  C   UNL     1       4.896  -0.884  -3.829  1.00  0.00    +0.000 A 
ATOM     26  C   UNL     1       6.446  -1.631  -2.147  1.00  0.00    +0.000 A 
ATOM     27  C   UNL     1       6.118  -1.456  -3.487  1.00  0.00    +0.000 A 
ENDBRANCH   1  22
TORSDOF 9
