REMARK  Name = 3827
REMARK  1 active torsions:
REMARK  status: ('A' for Active; 'I' for Inactive)
REMARK    1  A    between atoms: N_3  and  C_13
REMARK                            x       y       z     vdW  Elec       q    Type
REMARK                         _______ _______ _______ _____ _____    ______ ____
ROOT
ATOM      1  S   UNL     1       3.189  -0.996   0.922  1.00  0.00    -0.093 S 
ATOM      2  O   UNL     1       1.189  -3.050   0.017  1.00  0.00    -0.291 OA
ATOM      3  N   UNL     1       0.462   2.447  -4.866  1.00  0.00    -0.305 NA
ATOM      4  C   UNL     1       0.373   1.910  -1.924  1.00  0.00    -0.059 C 
ATOM      5  C   UNL     1      -0.845   2.416  -2.690  1.00  0.00    +0.047 C 
ATOM      6  C   UNL     1       1.659   2.327  -2.629  1.00  0.00    +0.047 C 
ATOM      7  C   UNL     1      -0.777   2.044  -4.182  1.00  0.00    +0.088 C 
ATOM      8  C   UNL     1       1.636   1.959  -4.124  1.00  0.00    +0.088 C 
ATOM      9  C   UNL     1       0.327   1.142  -0.802  1.00  0.00    -0.010 C 
ATOM     10  C   UNL     1      -0.994   0.707  -0.271  1.00  0.00    -0.014 A 
ATOM     11  C   UNL     1       1.506   0.624  -0.142  1.00  0.00    +0.000 A 
ATOM     12  C   UNL     1      -1.354  -0.652  -0.365  1.00  0.00    -0.032 A 
ATOM     13  C   UNL     1       0.519   3.888  -5.099  1.00  0.00    +0.104 C 
ATOM     14  C   UNL     1       1.706  -0.729   0.093  1.00  0.00    +0.063 A 
ATOM     15  C   UNL     1      -0.420  -1.645  -1.019  1.00  0.00    +0.116 C 
ATOM     16  C   UNL     1       0.872  -1.885  -0.246  1.00  0.00    +0.175 C 
ATOM     17  C   UNL     1      -1.842   1.612   0.380  1.00  0.00    +0.009 A 
ATOM     18  C   UNL     1       2.545   1.431   0.420  1.00  0.00    +0.017 A 
ATOM     19  C   UNL     1      -2.581  -1.073   0.167  1.00  0.00    +0.004 A 
ATOM     20  C   UNL     1       3.528   0.674   1.012  1.00  0.00    +0.046 A 
ATOM     21  C   UNL     1      -3.061   1.180   0.903  1.00  0.00    +0.001 A 
ATOM     22  C   UNL     1      -3.430  -0.159   0.793  1.00  0.00    +0.000 A 
ENDROOT
TORSDOF 0
