REMARK  Name = 1549000
REMARK  9 active torsions:
REMARK  status: ('A' for Active; 'I' for Inactive)
REMARK    1  A    between atoms: O_2  and  C_15
REMARK    2  A    between atoms: O_2  and  C_26
REMARK    3  A    between atoms: O_3  and  C_27
REMARK    4  A    between atoms: N_5  and  C_11
REMARK    5  A    between atoms: N_6  and  C_12
REMARK    6  A    between atoms: C_11  and  C_13
REMARK    7  A    between atoms: C_11  and  C_14
REMARK    8  A    between atoms: C_12  and  C_15
REMARK    9  A    between atoms: C_26  and  C_27
REMARK                            x       y       z     vdW  Elec       q    Type
REMARK                         _______ _______ _______ _____ _____    ______ ____
ROOT
ATOM      1  N   UNL     1       3.284  -0.316  -0.871  1.00  0.00    -0.289 NA
ATOM      2  N   UNL     1       1.530  -1.668  -2.855  1.00  0.00    -0.298 NA
ATOM      3  C   UNL     1       2.715  -1.625  -0.593  1.00  0.00    +0.100 C 
ATOM      4  C   UNL     1       2.705   0.440  -1.967  1.00  0.00    +0.100 C 
ATOM      5  C   UNL     1       2.318  -2.415  -1.855  1.00  0.00    +0.100 C 
ATOM      6  C   UNL     1       2.230  -0.409  -3.174  1.00  0.00    +0.100 C 
ENDROOT
BRANCH   1   7
ATOM      7  C   UNL     1       4.584   0.002  -0.282  1.00  0.00    +0.117 C 
BRANCH   7   9
ATOM      8 CL   UNL     1       9.271  -3.134  -2.517  1.00  0.00    -0.084 Cl
ATOM      9  C   UNL     1       5.773  -0.754  -0.887  1.00  0.00    -0.026 A 
ATOM     10  C   UNL     1       6.822  -1.169  -0.043  1.00  0.00    +0.007 A 
ATOM     11  C   UNL     1       5.873  -1.047  -2.255  1.00  0.00    +0.007 A 
ATOM     12  C   UNL     1       7.904  -1.899  -0.544  1.00  0.00    +0.020 A 
ATOM     13  C   UNL     1       6.950  -1.780  -2.758  1.00  0.00    +0.020 A 
ATOM     14  C   UNL     1       7.956  -2.212  -1.899  1.00  0.00    +0.041 A 
ENDBRANCH   7   9
BRANCH   7  15
ATOM     15  C   UNL     1       4.821   1.498  -0.070  1.00  0.00    -0.026 A 
ATOM     16  C   UNL     1       5.534   2.294  -0.982  1.00  0.00    +0.005 A 
ATOM     17  C   UNL     1       4.289   2.118   1.076  1.00  0.00    +0.005 A 
ATOM     18  C   UNL     1       5.721   3.658  -0.747  1.00  0.00    +0.000 A 
ATOM     19  C   UNL     1       4.480   3.480   1.313  1.00  0.00    +0.000 A 
ATOM     20  C   UNL     1       5.199   4.248   0.402  1.00  0.00    +0.000 A 
ENDBRANCH   7  15
ENDBRANCH   1   7
BRANCH   2  21
ATOM     21  C   UNL     1       0.136  -1.420  -2.439  1.00  0.00    +0.112 C 
BRANCH  21  22
ATOM     22  C   UNL     1      -0.749  -2.685  -2.417  1.00  0.00    +0.176 C 
BRANCH  22  23
ATOM     23  O   UNL     1      -1.178  -3.135  -3.704  1.00  0.00    -0.367 OA
BRANCH  23  24
ATOM     24  C   UNL     1      -0.149  -3.568  -4.580  1.00  0.00    +0.280 C 
BRANCH  24  26
ATOM     25  O   UNL     1       0.690  -5.394  -3.134  1.00  0.00    -0.248 OA
ATOM     26  C   UNL     1       0.748  -4.730  -4.156  1.00  0.00    +0.331 C 
BRANCH  26  27
ATOM     27  O   UNL     1       1.677  -5.022  -5.095  1.00  0.00    -0.479 OA
ATOM     28  H   UNL     1       2.158  -5.784  -4.711  1.00  0.00    +0.295 HD
ENDBRANCH  26  27
ENDBRANCH  24  26
ENDBRANCH  23  24
ENDBRANCH  22  23
ENDBRANCH  21  22
ENDBRANCH   2  21
TORSDOF 9
