REMARK  Name = 3957
REMARK  3 active torsions:
REMARK  status: ('A' for Active; 'I' for Inactive)
REMARK    1  A    between atoms: O_2  and  C_19
REMARK    2  A    between atoms: O_2  and  C_26
REMARK    3  A    between atoms: C_26  and  C_27
REMARK                            x       y       z     vdW  Elec       q    Type
REMARK                         _______ _______ _______ _____ _____    ______ ____
ROOT
ATOM      1 CL   UNL     1       1.031  -0.169  -0.194  1.00  0.00    -0.084 Cl
ATOM      2  O   UNL     1       9.335  -4.692  -3.297  1.00  0.00    -0.226 OA
ATOM      3  N   UNL     1       9.224  -2.782  -2.011  1.00  0.00    -0.267 N 
ATOM      4  N   UNL     1       8.567   0.141   1.922  1.00  0.00    -0.255 NA
ATOM      5  C   UNL     1       7.754  -0.553  -0.882  1.00  0.00    -0.057 C 
ATOM      6  C   UNL     1       7.194  -1.343  -2.057  1.00  0.00    +0.050 C 
ATOM      7  C   UNL     1       9.273  -0.510  -0.991  1.00  0.00    +0.050 C 
ATOM      8  C   UNL     1       7.013   0.029   0.100  1.00  0.00    +0.007 C 
ATOM      9  C   UNL     1       7.764  -2.765  -2.066  1.00  0.00    +0.115 C 
ATOM     10  C   UNL     1       9.851  -1.931  -0.993  1.00  0.00    +0.115 C 
ATOM     11  C   UNL     1       5.534  -0.041   0.033  1.00  0.00    -0.013 A 
ATOM     12  C   UNL     1       7.649   0.824   1.183  1.00  0.00    +0.075 A 
ATOM     13  C   UNL     1       4.819   1.125  -0.295  1.00  0.00    -0.038 A 
ATOM     14  C   UNL     1       5.571   2.411  -0.536  1.00  0.00    +0.040 C 
ATOM     15  C   UNL     1       6.219   2.957   0.743  1.00  0.00    +0.042 C 
ATOM     16  C   UNL     1       7.283   2.149   1.461  1.00  0.00    -0.021 A 
ATOM     17  C   UNL     1       4.848  -1.228   0.323  1.00  0.00    +0.010 A 
ATOM     18  C   UNL     1       9.885  -3.851  -2.595  1.00  0.00    +0.403 C 
ATOM     19  C   UNL     1       3.420   1.076  -0.367  1.00  0.00    +0.024 A 
ATOM     20  C   UNL     1       7.932   2.775   2.540  1.00  0.00    +0.007 A 
ATOM     21  C   UNL     1       3.455  -1.269   0.246  1.00  0.00    +0.020 A 
ATOM     22  C   UNL     1       2.749  -0.119  -0.103  1.00  0.00    +0.041 A 
ATOM     23  C   UNL     1       8.879   2.091   3.292  1.00  0.00    +0.020 A 
ATOM     24  C   UNL     1       9.156   0.784   2.950  1.00  0.00    +0.111 A 
ENDROOT
BRANCH  18  25
ATOM     25  O   UNL     1      11.217  -3.860  -2.312  1.00  0.00    -0.451 OA
BRANCH  25  26
ATOM     26  C   UNL     1      11.982  -4.908  -2.925  1.00  0.00    +0.230 C 
ATOM     27  C   UNL     1      11.945  -6.160  -2.068  1.00  0.00    +0.048 C 
ENDBRANCH  25  26
ENDBRANCH  18  25
TORSDOF 2
