REMARK  Name = 4034
REMARK  6 active torsions:
REMARK  status: ('A' for Active; 'I' for Inactive)
REMARK    1  A    between atoms: N_2  and  C_8
REMARK    2  A    between atoms: N_3  and  C_9
REMARK    3  A    between atoms: C_8  and  C_10
REMARK    4  A    between atoms: C_8  and  C_11
REMARK    5  A    between atoms: C_9  and  C_12
REMARK    6  A    between atoms: C_23  and  C_28
REMARK                            x       y       z     vdW  Elec       q    Type
REMARK                         _______ _______ _______ _____ _____    ______ ____
ROOT
ATOM      1  N   UNL     1       3.768  -0.869   0.951  1.00  0.00    -0.289 NA
ATOM      2  N   UNL     1       1.945  -1.463   3.286  1.00  0.00    -0.296 NA
ATOM      3  C   UNL     1       3.294  -2.227   1.256  1.00  0.00    +0.100 C 
ATOM      4  C   UNL     1       3.602   0.051   2.083  1.00  0.00    +0.100 C 
ATOM      5  C   UNL     1       1.992  -2.325   2.088  1.00  0.00    +0.100 C 
ATOM      6  C   UNL     1       2.287  -0.087   2.885  1.00  0.00    +0.100 C 
ENDROOT
BRANCH   1   7
ATOM      7  C   UNL     1       3.424  -0.310  -0.376  1.00  0.00    +0.117 C 
BRANCH   7   9
ATOM      8 CL   UNL     1      -2.511  -0.086  -1.609  1.00  0.00    -0.084 Cl
ATOM      9  C   UNL     1       1.923  -0.276  -0.691  1.00  0.00    -0.026 A 
ATOM     10  C   UNL     1       1.180   0.888  -0.424  1.00  0.00    +0.007 A 
ATOM     11  C   UNL     1       1.257  -1.375  -1.265  1.00  0.00    +0.007 A 
ATOM     12  C   UNL     1      -0.188   0.945  -0.704  1.00  0.00    +0.020 A 
ATOM     13  C   UNL     1      -0.111  -1.316  -1.548  1.00  0.00    +0.020 A 
ATOM     14  C   UNL     1      -0.828  -0.158  -1.262  1.00  0.00    +0.041 A 
ENDBRANCH   7   9
BRANCH   7  15
ATOM     15  C   UNL     1       4.300  -0.855  -1.527  1.00  0.00    -0.026 A 
ATOM     16  C   UNL     1       5.423  -1.671  -1.302  1.00  0.00    +0.005 A 
ATOM     17  C   UNL     1       4.045  -0.452  -2.854  1.00  0.00    +0.005 A 
ATOM     18  C   UNL     1       6.226  -2.106  -2.360  1.00  0.00    +0.000 A 
ATOM     19  C   UNL     1       4.847  -0.888  -3.912  1.00  0.00    +0.000 A 
ATOM     20  C   UNL     1       5.935  -1.719  -3.665  1.00  0.00    +0.000 A 
ENDBRANCH   7  15
ENDBRANCH   1   7
BRANCH   2  21
ATOM     21  C   UNL     1       2.823  -1.941   4.367  1.00  0.00    +0.119 C 
BRANCH  21  22
ATOM     22  C   UNL     1       2.345  -3.232   5.003  1.00  0.00    -0.033 A 
ATOM     23  C   UNL     1       1.032  -3.344   5.491  1.00  0.00    +0.008 A 
ATOM     24  C   UNL     1       3.215  -4.321   5.143  1.00  0.00    +0.005 A 
ATOM     25  C   UNL     1       0.584  -4.526   6.093  1.00  0.00    -0.050 A 
ATOM     26  C   UNL     1       2.777  -5.502   5.744  1.00  0.00    +0.001 A 
ATOM     27  C   UNL     1       1.467  -5.605   6.214  1.00  0.00    +0.003 A 
ATOM     28  C   UNL     1      -0.822  -4.646   6.602  1.00  0.00    +0.044 C 
ENDBRANCH  21  22
ENDBRANCH   2  21
TORSDOF 5
