REMARK  Name = 65906
REMARK  4 active torsions:
REMARK  status: ('A' for Active; 'I' for Inactive)
REMARK    1  A    between atoms: N_4  and  C_9
REMARK    2  A    between atoms: N_4  and  C_15
REMARK    3  A    between atoms: N_5  and  C_18
REMARK    4  A    between atoms: C_18  and  C_21
REMARK                            x       y       z     vdW  Elec       q    Type
REMARK                         _______ _______ _______ _____ _____    ______ ____
ROOT
ATOM      1  N   UNL     1      -3.191  -3.661  -0.444  1.00  0.00    -0.301 N 
ATOM      2  N   UNL     1      -5.164  -2.471  -1.114  1.00  0.00    -0.307 N 
ATOM      3  N   UNL     1      -3.236  -1.863  -2.032  1.00  0.00    -0.214 NA
ATOM      4  C   UNL     1      -0.613  -3.649   0.812  1.00  0.00    +0.079 C 
ATOM      5  C   UNL     1      -1.750  -2.811   1.382  1.00  0.00    +0.041 C 
ATOM      6  C   UNL     1      -0.707  -3.724  -0.709  1.00  0.00    +0.041 C 
ATOM      7  C   UNL     1      -3.070  -3.479   1.011  1.00  0.00    +0.110 C 
ATOM      8  C   UNL     1      -2.054  -4.331  -1.100  1.00  0.00    +0.110 C 
ATOM      9  C   UNL     1      -3.796  -2.667  -1.155  1.00  0.00    +0.200 A 
ATOM     10  C   UNL     1      -5.483  -1.487  -2.028  1.00  0.00    +0.070 A 
ATOM     11  C   UNL     1      -4.257  -1.115  -2.569  1.00  0.00    +0.091 A 
ATOM     12  C   UNL     1      -6.696  -0.905  -2.420  1.00  0.00    +0.028 A 
ATOM     13  C   UNL     1      -4.218  -0.103  -3.543  1.00  0.00    +0.030 A 
ATOM     14  C   UNL     1      -6.637   0.100  -3.390  1.00  0.00    +0.002 A 
ATOM     15  C   UNL     1      -5.419   0.502  -3.943  1.00  0.00    +0.002 A 
ENDROOT
BRANCH   4  17
ATOM     16  O   UNL     1       0.733   1.252   0.072  1.00  0.00    -0.268 OA
ATOM     17  N   UNL     1       0.729  -3.261   1.276  1.00  0.00    -0.301 N 
ATOM     18  N   UNL     1       0.707  -0.942   0.699  1.00  0.00    -0.295 N 
ATOM     19  N   UNL     1       2.275  -1.786   2.189  1.00  0.00    -0.224 NA
ATOM     20  C   UNL     1       1.510  -4.377   1.831  1.00  0.00    +0.132 C 
ATOM     21  C   UNL     1       1.249  -1.984   1.409  1.00  0.00    +0.198 A 
ATOM     22  C   UNL     1       1.193   0.333   0.739  1.00  0.00    +0.253 A 
ATOM     23  C   UNL     1       2.799  -0.528   2.280  1.00  0.00    +0.119 A 
ATOM     24  C   UNL     1       2.338   0.538   1.630  1.00  0.00    +0.090 A 
ATOM     25  H   UNL     1      -0.044  -1.093   0.050  1.00  0.00    +0.172 HD
ENDBRANCH   4  17
BRANCH   2  26
ATOM     26  C   UNL     1      -6.147  -3.270  -0.395  1.00  0.00    +0.160 C 
BRANCH  26  28
ATOM     27  F   UNL     1      -7.491  -1.393   4.769  1.00  0.00    -0.205 F 
ATOM     28  C   UNL     1      -6.498  -2.733   0.979  1.00  0.00    -0.027 A 
ATOM     29  C   UNL     1      -6.594  -1.356   1.254  1.00  0.00    +0.008 A 
ATOM     30  C   UNL     1      -6.788  -3.645   2.011  1.00  0.00    +0.008 A 
ATOM     31  C   UNL     1      -6.923  -0.905   2.534  1.00  0.00    +0.038 A 
ATOM     32  C   UNL     1      -7.114  -3.191   3.291  1.00  0.00    +0.038 A 
ATOM     33  C   UNL     1      -7.173  -1.826   3.542  1.00  0.00    +0.123 A 
ENDBRANCH  26  28
ENDBRANCH   2  26
TORSDOF 3
