REMARK  Name = 5281071
REMARK  8 active torsions:
REMARK  status: ('A' for Active; 'I' for Inactive)
REMARK    1  A    between atoms: O_2  and  C_25
REMARK    2  A    between atoms: N_4  and  C_13
REMARK    3  A    between atoms: N_4  and  C_23
REMARK    4  A    between atoms: N_4  and  C_24
REMARK    5  A    between atoms: C_10  and  C_11
REMARK    6  A    between atoms: C_10  and  C_13
REMARK    7  A    between atoms: C_15  and  C_20
REMARK    8  A    between atoms: C_20  and  C_25
REMARK                            x       y       z     vdW  Elec       q    Type
REMARK                         _______ _______ _______ _____ _____    ______ ____
ROOT
ATOM      1  O   UNL     1      -0.657   1.552  -0.864  1.00  0.00    -0.487 OA
ATOM      2  C   UNL     1       0.157  -1.127  -0.784  1.00  0.00    -0.011 C 
ATOM      3  C   UNL     1      -1.176  -0.719  -0.295  1.00  0.00    +0.024 A 
ATOM      4  C   UNL     1       1.410  -0.573  -0.199  1.00  0.00    -0.011 A 
ATOM      5  C   UNL     1       1.515   0.783   0.179  1.00  0.00    -0.003 A 
ATOM      6  C   UNL     1      -1.543   0.626  -0.380  1.00  0.00    +0.129 A 
ATOM      7  C   UNL     1       0.255  -1.889  -1.899  1.00  0.00    -0.017 C 
ATOM      8  C   UNL     1       0.379   1.792   0.100  1.00  0.00    +0.265 C 
ATOM      9  C   UNL     1      -2.086  -1.642   0.235  1.00  0.00    +0.016 A 
ATOM     10  C   UNL     1      -3.372  -1.231   0.621  1.00  0.00    -0.036 A 
ATOM     11  C   UNL     1       2.511  -1.426   0.021  1.00  0.00    +0.009 A 
ATOM     12  C   UNL     1      -2.822   1.045  -0.027  1.00  0.00    +0.046 A 
ATOM     13  C   UNL     1       2.725   1.241   0.745  1.00  0.00    +0.007 A 
ATOM     14  C   UNL     1      -3.737   0.116   0.473  1.00  0.00    +0.008 A 
ATOM     15  C   UNL     1       3.702  -0.950   0.571  1.00  0.00    +0.001 A 
ATOM     16  C   UNL     1       3.811   0.387   0.928  1.00  0.00    +0.000 A 
ENDROOT
BRANCH   7  17
ATOM     17  C   UNL     1      -0.855  -2.447  -2.760  1.00  0.00    +0.043 C 
BRANCH  17  18
ATOM     18  C   UNL     1      -0.754  -1.927  -4.206  1.00  0.00    +0.088 C 
BRANCH  18  19
ATOM     19  N   UNL     1      -1.883  -2.349  -5.058  1.00  0.00    -0.308 NA
ATOM     20  C   UNL     1      -1.833  -1.632  -6.336  1.00  0.00    +0.104 C 
ATOM     21  C   UNL     1      -1.883  -3.793  -5.303  1.00  0.00    +0.104 C 
ENDBRANCH  18  19
ENDBRANCH  17  18
ENDBRANCH   7  17
BRANCH  10  22
ATOM     22  C   UNL     1      -4.368  -2.243   1.135  1.00  0.00    +0.155 C 
BRANCH  22  24
ATOM     23  O   UNL     1      -6.161  -3.669   0.430  1.00  0.00    -0.251 OA
ATOM     24  C   UNL     1      -5.276  -2.885   0.109  1.00  0.00    +0.309 C 
BRANCH  24  25
ATOM     25  O   UNL     1      -5.065  -2.571  -1.186  1.00  0.00    -0.480 OA
ATOM     26  H   UNL     1      -4.337  -1.941  -1.358  1.00  0.00    +0.295 HD
ENDBRANCH  24  25
ENDBRANCH  22  24
ENDBRANCH  10  22
TORSDOF 6
