REMARK  Name = 4615
REMARK  7 active torsions:
REMARK  status: ('A' for Active; 'I' for Inactive)
REMARK    1  A    between atoms: N_2  and  C_10
REMARK    2  A    between atoms: N_3  and  C_11
REMARK    3  A    between atoms: N_4  and  C_15
REMARK    4  A    between atoms: C_10  and  C_13
REMARK    5  A    between atoms: C_10  and  C_14
REMARK    6  A    between atoms: C_11  and  C_12
REMARK    7  A    between atoms: C_12  and  C_15
REMARK                            x       y       z     vdW  Elec       q    Type
REMARK                         _______ _______ _______ _____ _____    ______ ____
ROOT
ATOM      1  N   UNL     1       0.167  -2.874  -2.102  1.00  0.00    -0.289 NA
ATOM      2  N   UNL     1       1.516  -2.389   0.474  1.00  0.00    -0.300 NA
ATOM      3  C   UNL     1       0.954  -3.930  -1.476  1.00  0.00    +0.100 C 
ATOM      4  C   UNL     1       0.728  -1.555  -1.790  1.00  0.00    +0.100 C 
ATOM      5  C   UNL     1       1.053  -3.727   0.052  1.00  0.00    +0.100 C 
ATOM      6  C   UNL     1       0.815  -1.323  -0.268  1.00  0.00    +0.100 C 
ENDROOT
BRANCH   1   7
ATOM      7  C   UNL     1      -0.213  -3.029  -3.521  1.00  0.00    +0.117 C 
BRANCH   7   8
ATOM      8  C   UNL     1       0.387  -4.218  -4.285  1.00  0.00    -0.026 A 
ATOM      9  C   UNL     1      -0.335  -5.382  -4.599  1.00  0.00    +0.005 A 
ATOM     10  C   UNL     1       1.728  -4.146  -4.709  1.00  0.00    +0.005 A 
ATOM     11  C   UNL     1       0.248  -6.416  -5.341  1.00  0.00    +0.000 A 
ATOM     12  C   UNL     1       2.313  -5.182  -5.442  1.00  0.00    +0.000 A 
ATOM     13  C   UNL     1       1.567  -6.309  -5.772  1.00  0.00    +0.000 A 
ENDBRANCH   7   8
BRANCH   7  14
ATOM     14  C   UNL     1      -1.739  -2.888  -3.635  1.00  0.00    -0.026 A 
ATOM     15  C   UNL     1      -2.304  -2.103  -4.653  1.00  0.00    +0.005 A 
ATOM     16  C   UNL     1      -2.604  -3.504  -2.710  1.00  0.00    +0.005 A 
ATOM     17  C   UNL     1      -3.688  -1.923  -4.727  1.00  0.00    +0.000 A 
ATOM     18  C   UNL     1      -3.984  -3.316  -2.781  1.00  0.00    +0.000 A 
ATOM     19  C   UNL     1      -4.526  -2.523  -3.788  1.00  0.00    +0.000 A 
ENDBRANCH   7  14
ENDBRANCH   1   7
BRANCH   2  20
ATOM     20  C   UNL     1       1.331  -2.173   1.920  1.00  0.00    +0.086 C 
BRANCH  20  21
ATOM     21  C   UNL     1       2.123  -3.145   2.794  1.00  0.00    +0.037 C 
BRANCH  21  22
ATOM     22  C   UNL     1       1.903  -2.843   4.276  1.00  0.00    +0.128 C 
BRANCH  22  24
ATOM     23  O   UNL     1       4.725  -2.607   5.176  1.00  0.00    -0.247 OA
ATOM     24  N   UNL     1       2.648  -3.731   5.122  1.00  0.00    -0.292 N 
ATOM     25  N   UNL     1       4.381  -4.672   6.207  1.00  0.00    -0.306 N 
ATOM     26  C   UNL     1       2.223  -4.974   5.613  1.00  0.00    +0.070 A 
ATOM     27  C   UNL     1       4.002  -3.548   5.465  1.00  0.00    +0.328 A 
ATOM     28  C   UNL     1       3.302  -5.543   6.291  1.00  0.00    +0.067 A 
ATOM     29  C   UNL     1       1.013  -5.626   5.510  1.00  0.00    +0.028 A 
ATOM     30  C   UNL     1       3.229  -6.776   6.898  1.00  0.00    +0.028 A 
ATOM     31  C   UNL     1       0.921  -6.894   6.101  1.00  0.00    +0.002 A 
ATOM     32  C   UNL     1       2.017  -7.460   6.788  1.00  0.00    +0.002 A 
ATOM     33  H   UNL     1       5.317  -4.817   6.549  1.00  0.00    +0.170 HD
ENDBRANCH  22  24
ENDBRANCH  21  22
ENDBRANCH  20  21
ENDBRANCH   2  20
TORSDOF 7
