REMARK  Name = 133017
REMARK  3 active torsions:
REMARK  status: ('A' for Active; 'I' for Inactive)
REMARK    1  A    between atoms: N_2  and  C_11
REMARK    2  A    between atoms: C_11  and  C_18
REMARK    3  A    between atoms: C_28  and  C_30
REMARK                            x       y       z     vdW  Elec       q    Type
REMARK                         _______ _______ _______ _____ _____    ______ ____
ROOT
ATOM      1 CL   UNL     1       0.974  -0.104   0.094  1.00  0.00    -0.084 Cl
ATOM      2  N   UNL     1       9.212  -2.843  -2.252  1.00  0.00    -0.298 NA
ATOM      3  N   UNL     1       8.546   0.089   1.944  1.00  0.00    -0.255 NA
ATOM      4  C   UNL     1       7.674  -0.693  -0.845  1.00  0.00    -0.057 C 
ATOM      5  C   UNL     1       7.065  -1.500  -1.986  1.00  0.00    +0.047 C 
ATOM      6  C   UNL     1       9.189  -0.642  -0.993  1.00  0.00    +0.047 C 
ATOM      7  C   UNL     1       7.740  -2.878  -2.121  1.00  0.00    +0.089 C 
ATOM      8  C   UNL     1       9.780  -2.057  -1.137  1.00  0.00    +0.089 C 
ATOM      9  C   UNL     1       6.967  -0.081   0.146  1.00  0.00    +0.007 C 
ATOM     10  C   UNL     1       5.485  -0.117   0.123  1.00  0.00    -0.013 A 
ATOM     11  C   UNL     1       7.640   0.754   1.177  1.00  0.00    +0.075 A 
ATOM     12  C   UNL     1       4.793   1.048  -0.255  1.00  0.00    -0.038 A 
ATOM     13  C   UNL     1       5.572   2.293  -0.603  1.00  0.00    +0.040 C 
ATOM     14  C   UNL     1       6.275   2.903   0.618  1.00  0.00    +0.042 C 
ATOM     15  C   UNL     1       7.319   2.106   1.375  1.00  0.00    -0.021 A 
ATOM     16  C   UNL     1       4.777  -1.258   0.520  1.00  0.00    +0.010 A 
ATOM     17  C   UNL     1       3.392   1.042  -0.269  1.00  0.00    +0.024 A 
ATOM     18  C   UNL     1       8.005   2.777   2.404  1.00  0.00    +0.007 A 
ATOM     19  C   UNL     1       3.381  -1.255   0.508  1.00  0.00    +0.020 A 
ATOM     20  C   UNL     1       2.696  -0.108   0.109  1.00  0.00    +0.041 A 
ATOM     21  C   UNL     1       8.946   2.112   3.181  1.00  0.00    +0.020 A 
ATOM     22  C   UNL     1       9.176   0.777   2.917  1.00  0.00    +0.111 A 
ENDROOT
BRANCH   2  23
ATOM     23  C   UNL     1       9.671  -2.331  -3.554  1.00  0.00    +0.121 C 
BRANCH  23  25
ATOM     24  N   UNL     1       8.326  -3.513  -6.896  1.00  0.00    -0.263 NA
ATOM     25  C   UNL     1       9.345  -3.239  -4.713  1.00  0.00    -0.015 A 
ATOM     26  C   UNL     1       9.762  -4.574  -4.742  1.00  0.00    +0.011 A 
ATOM     27  C   UNL     1       8.641  -2.766  -5.815  1.00  0.00    +0.115 A 
ATOM     28  C   UNL     1       9.471  -5.375  -5.849  1.00  0.00    -0.032 A 
ATOM     29  C   UNL     1       8.744  -4.798  -6.884  1.00  0.00    +0.114 A 
ATOM     30  C   UNL     1       9.868  -6.815  -5.889  1.00  0.00    +0.045 C 
ENDBRANCH  23  25
ENDBRANCH   2  23
TORSDOF 2
