REMARK  Name = 5405
REMARK  14 active torsions:
REMARK  status: ('A' for Active; 'I' for Inactive)
REMARK    1  A    between atoms: O_1  and  C_7
REMARK    2  A    between atoms: O_2  and  C_19
REMARK    3  A    between atoms: N_3  and  C_10
REMARK    4  A    between atoms: C_4  and  C_7
REMARK    5  A    between atoms: C_7  and  C_11
REMARK    6  A    between atoms: C_7  and  C_12
REMARK    7  A    between atoms: C_10  and  C_13
REMARK    8  A    between atoms: C_13  and  C_14
REMARK    9  A    between atoms: C_14  and  C_19
REMARK   10  A    between atoms: C_19  and  C_24
REMARK   11  A    between atoms: C_27  and  C_28
REMARK   12  A    between atoms: C_27  and  C_33
REMARK   13  A    between atoms: C_27  and  C_34
REMARK   14  A    between atoms: C_27  and  C_35
REMARK                            x       y       z     vdW  Elec       q    Type
REMARK                         _______ _______ _______ _____ _____    ______ ____
ROOT
ATOM      1  N   UNL     1       2.376   3.108  -4.094  1.00  0.00    -0.302 NA
ATOM      2  C   UNL     1       1.704   1.692  -1.515  1.00  0.00    +0.032 C 
ATOM      3  C   UNL     1       1.171   3.089  -1.909  1.00  0.00    +0.022 C 
ATOM      4  C   UNL     1       2.907   1.320  -2.401  1.00  0.00    +0.022 C 
ATOM      5  C   UNL     1       1.093   3.351  -3.412  1.00  0.00    +0.085 C 
ATOM      6  C   UNL     1       2.791   1.710  -3.877  1.00  0.00    +0.085 C 
ENDROOT
BRANCH   2   7
ATOM      7  C   UNL     1       0.605   0.572  -1.312  1.00  0.00    +0.119 C 
BRANCH   7   8
ATOM      8  C   UNL     1       1.089  -0.724  -0.602  1.00  0.00    -0.011 A 
ATOM      9  C   UNL     1       0.286  -1.888  -0.640  1.00  0.00    +0.007 A 
ATOM     10  C   UNL     1       2.243  -0.775   0.201  1.00  0.00    +0.007 A 
ATOM     11  C   UNL     1       0.657  -3.061   0.020  1.00  0.00    +0.000 A 
ATOM     12  C   UNL     1       2.605  -1.943   0.884  1.00  0.00    +0.000 A 
ATOM     13  C   UNL     1       1.819  -3.088   0.779  1.00  0.00    +0.000 A 
ENDBRANCH   7   8
BRANCH   7  14
ATOM     14  C   UNL     1      -0.171   0.289  -2.613  1.00  0.00    -0.011 A 
ATOM     15  C   UNL     1      -1.408   0.909  -2.869  1.00  0.00    +0.007 A 
ATOM     16  C   UNL     1       0.318  -0.613  -3.578  1.00  0.00    +0.007 A 
ATOM     17  C   UNL     1      -2.112   0.662  -4.050  1.00  0.00    +0.000 A 
ATOM     18  C   UNL     1      -0.389  -0.866  -4.757  1.00  0.00    +0.000 A 
ATOM     19  C   UNL     1      -1.600  -0.222  -4.995  1.00  0.00    +0.000 A 
ENDBRANCH   7  14
BRANCH   7  20
ATOM     20  O   UNL     1      -0.334   1.137  -0.359  1.00  0.00    -0.379 OA
ATOM     21  H   UNL     1      -0.194   0.699   0.497  1.00  0.00    +0.211 HD
ENDBRANCH   7  20
ENDBRANCH   2   7
BRANCH   1  22
ATOM     22  C   UNL     1       2.214   3.332  -5.553  1.00  0.00    +0.084 C 
BRANCH  22  23
ATOM     23  C   UNL     1       2.019   4.805  -5.935  1.00  0.00    +0.018 C 
BRANCH  23  24
ATOM     24  C   UNL     1       3.069   5.792  -5.392  1.00  0.00    +0.037 C 
BRANCH  24  25
ATOM     25  C   UNL     1       4.546   5.441  -5.679  1.00  0.00    +0.145 C 
BRANCH  25  26
ATOM     26  C   UNL     1       4.809   5.141  -7.145  1.00  0.00    -0.019 A 
ATOM     27  C   UNL     1       4.984   4.517  -9.922  1.00  0.00    -0.042 A 
ATOM     28  C   UNL     1       5.270   3.893  -7.577  1.00  0.00    +0.006 A 
ATOM     29  C   UNL     1       4.521   6.104  -8.118  1.00  0.00    +0.006 A 
ATOM     30  C   UNL     1       5.348   3.583  -8.940  1.00  0.00    +0.004 A 
ATOM     31  C   UNL     1       4.605   5.798  -9.480  1.00  0.00    +0.004 A 
BRANCH  27  32
ATOM     32  C   UNL     1       4.964   4.180 -11.421  1.00  0.00    -0.013 C 
ATOM     33  C   UNL     1       5.270   2.696 -11.723  1.00  0.00    +0.015 C 
ATOM     34  C   UNL     1       3.565   4.483 -12.004  1.00  0.00    +0.015 C 
ATOM     35  C   UNL     1       6.014   5.030 -12.162  1.00  0.00    +0.015 C 
ENDBRANCH  27  32
ENDBRANCH  25  26
BRANCH  25  36
ATOM     36  O   UNL     1       4.993   4.378  -4.835  1.00  0.00    -0.387 OA
ATOM     37  H   UNL     1       4.221   4.042  -4.336  1.00  0.00    +0.210 HD
ENDBRANCH  25  36
ENDBRANCH  24  25
ENDBRANCH  23  24
ENDBRANCH  22  23
ENDBRANCH   1  22
TORSDOF 11
