REMARK  Name = 5282443
REMARK  5 active torsions:
REMARK  status: ('A' for Active; 'I' for Inactive)
REMARK    1  A    between atoms: N_1  and  C_7
REMARK    2  A    between atoms: C_7  and  C_8
REMARK    3  A    between atoms: C_9  and  C_10
REMARK    4  A    between atoms: C_9  and  C_11
REMARK    5  A    between atoms: C_15  and  C_19
REMARK                            x       y       z     vdW  Elec       q    Type
REMARK                         _______ _______ _______ _____ _____    ______ ____
ROOT
ATOM      1  C   UNL     1      -0.404   0.060   2.449  1.00  0.00    -0.001 C 
ATOM      2  C   UNL     1      -0.027   0.867   3.467  1.00  0.00    +0.005 C 
ENDROOT
BRANCH   2   3
ATOM      3  C   UNL     1      -0.467   2.275   3.730  1.00  0.00    -0.016 A 
ATOM      4  C   UNL     1      -0.632   3.243   2.730  1.00  0.00    +0.009 A 
ATOM      5  C   UNL     1      -0.620   2.711   5.057  1.00  0.00    +0.009 A 
ATOM      6  C   UNL     1      -1.055   5.004   4.365  1.00  0.00    -0.050 A 
ATOM      7  C   UNL     1      -0.934   4.585   3.038  1.00  0.00    +0.004 A 
ATOM      8  C   UNL     1      -0.908   4.047   5.372  1.00  0.00    +0.004 A 
ATOM      9  C   UNL     1      -1.330   6.434   4.731  1.00  0.00    +0.044 C 
ENDBRANCH   2   3
BRANCH   2  11
ATOM     10  N   UNL     1       0.323  -0.573   5.378  1.00  0.00    -0.255 NA
ATOM     11  C   UNL     1       0.902   0.156   4.390  1.00  0.00    +0.071 A 
ATOM     12  C   UNL     1       2.271   0.165   4.150  1.00  0.00    +0.028 A 
ATOM     13  C   UNL     1       3.087  -0.638   4.943  1.00  0.00    +0.004 A 
ATOM     14  C   UNL     1       1.140  -1.338   6.130  1.00  0.00    +0.111 A 
ATOM     15  C   UNL     1       2.511  -1.409   5.947  1.00  0.00    +0.020 A 
ENDBRANCH   2  11
BRANCH   1  16
ATOM     16  C   UNL     1      -1.381   0.285   1.332  1.00  0.00    +0.112 C 
BRANCH  16  17
ATOM     17  N   UNL     1      -1.494  -0.904   0.454  1.00  0.00    -0.299 NA
ATOM     18  C   UNL     1      -0.336  -1.071  -0.444  1.00  0.00    +0.085 C 
ATOM     19  C   UNL     1      -2.636  -0.756  -0.464  1.00  0.00    +0.085 C 
ATOM     20  C   UNL     1      -0.616  -0.226  -1.679  1.00  0.00    +0.017 C 
ATOM     21  C   UNL     1      -2.109   0.064  -1.631  1.00  0.00    +0.017 C 
ENDBRANCH  16  17
ENDBRANCH   1  16
TORSDOF 4
