REMARK  Name = 2159
REMARK  11 active torsions:
REMARK  status: ('A' for Active; 'I' for Inactive)
REMARK    1  A    between atoms: S_1  and  C_18
REMARK    2  A    between atoms: S_1  and  C_23
REMARK    3  A    between atoms: O_3  and  C_20
REMARK    4  A    between atoms: O_3  and  C_25
REMARK    5  A    between atoms: N_6  and  C_14
REMARK    6  A    between atoms: N_7  and  C_13
REMARK    7  A    between atoms: N_8  and  C_21
REMARK    8  A    between atoms: C_9  and  C_13
REMARK    9  A    between atoms: C_14  and  C_15
REMARK   10  A    between atoms: C_16  and  C_17
REMARK   11  A    between atoms: C_23  and  C_24
REMARK                            x       y       z     vdW  Elec       q    Type
REMARK                         _______ _______ _______ _____ _____    ______ ____
ROOT
ATOM      1  C   UNL     1       0.049   0.098  -3.766  1.00  0.00    +0.080 A 
ATOM      2  C   UNL     1       0.100  -0.494  -1.413  1.00  0.00    +0.110 A 
ATOM      3  C   UNL     1      -0.045   0.472  -2.421  1.00  0.00    +0.045 A 
ATOM      4  C   UNL     1       0.271  -1.243  -4.097  1.00  0.00    +0.134 A 
ATOM      5  C   UNL     1       0.291  -1.849  -1.723  1.00  0.00    +0.053 A 
ATOM      6  C   UNL     1       0.431  -2.189  -3.075  1.00  0.00    +0.071 A 
ENDROOT
BRANCH   1   9
ATOM      7  O   UNL     1       0.967   1.309  -5.560  1.00  0.00    -0.270 OA
ATOM      8  N   UNL     1      -1.082   1.978  -4.767  1.00  0.00    -0.310 N 
ATOM      9  C   UNL     1       0.031   1.171  -4.784  1.00  0.00    +0.248 C 
ATOM     10  H   UNL     1      -1.805   1.861  -4.065  1.00  0.00    +0.149 HD
BRANCH   8  11
ATOM     11  C   UNL     1      -1.190   3.142  -5.628  1.00  0.00    +0.123 C 
BRANCH  11  13
ATOM     12  N   UNL     1      -3.473   3.815  -4.587  1.00  0.00    -0.298 NA
ATOM     13  C   UNL     1      -2.654   3.572  -5.807  1.00  0.00    +0.074 C 
ATOM     14  C   UNL     1      -2.813   4.835  -6.647  1.00  0.00    +0.022 C 
ATOM     15  C   UNL     1      -4.202   5.348  -6.292  1.00  0.00    +0.017 C 
ATOM     16  C   UNL     1      -4.679   4.463  -5.144  1.00  0.00    +0.085 C 
BRANCH  12  17
ATOM     17  C   UNL     1      -2.818   4.676  -3.585  1.00  0.00    +0.081 C 
ATOM     18  C   UNL     1      -3.582   4.689  -2.261  1.00  0.00    +0.020 C 
ENDBRANCH  12  17
ENDBRANCH  11  13
ENDBRANCH   8  11
ENDBRANCH   1   9
BRANCH   2  19
ATOM     19  S   UNL     1       0.033   0.055   0.279  1.00  0.00    -0.002 S 
ATOM     20  O   UNL     1      -0.509  -1.036   1.071  1.00  0.00    -0.169 OA
ATOM     21  O   UNL     1      -0.616   1.355   0.281  1.00  0.00    -0.169 OA
BRANCH  19  22
ATOM     22  C   UNL     1       1.751   0.279   0.701  1.00  0.00    +0.168 C 
ATOM     23  C   UNL     1       1.905   0.816   2.110  1.00  0.00    +0.028 C 
ENDBRANCH  19  22
ENDBRANCH   2  19
BRANCH   5  24
ATOM     24  N   UNL     1       0.590  -2.821  -0.755  1.00  0.00    -0.356 N 
ATOM     25  H   UNL     1       0.425  -3.776  -1.064  1.00  0.00    +0.142 HD
ATOM     26  H   UNL     1       0.119  -2.650   0.143  1.00  0.00    +0.142 HD
ENDBRANCH   5  24
BRANCH   4  27
ATOM     27  O   UNL     1       0.400  -1.740  -5.366  1.00  0.00    -0.494 OA
ATOM     28  C   UNL     1      -0.712  -1.443  -6.210  1.00  0.00    +0.277 C 
ENDBRANCH   4  27
TORSDOF 8
