REMARK  Name = 60795
REMARK  7 active torsions:
REMARK  status: ('A' for Active; 'I' for Inactive)
REMARK    1  A    between atoms: O_3  and  C_16
REMARK    2  A    between atoms: O_3  and  C_22
REMARK    3  A    between atoms: N_5  and  C_12
REMARK    4  A    between atoms: N_6  and  C_14
REMARK    5  A    between atoms: C_12  and  C_13
REMARK    6  A    between atoms: C_13  and  C_15
REMARK    7  A    between atoms: C_15  and  C_16
REMARK                            x       y       z     vdW  Elec       q    Type
REMARK                         _______ _______ _______ _____ _____    ______ ____
ROOT
ATOM      1  C   UNL     1      -2.878   5.421  -0.011  1.00  0.00    +0.019 C 
ENDROOT
BRANCH   1   2
ATOM      2  C   UNL     1      -1.581   5.776   0.729  1.00  0.00    +0.084 C 
BRANCH   2   3
ATOM      3  N   UNL     1      -1.081   4.722   1.618  1.00  0.00    -0.299 NA
ATOM      4  N   UNL     1       1.759   4.148   1.020  1.00  0.00    -0.326 N 
ATOM      5  C   UNL     1       0.047   5.214   2.451  1.00  0.00    +0.103 C 
ATOM      6  C   UNL     1      -0.632   3.504   0.895  1.00  0.00    +0.103 C 
ATOM      7  C   UNL     1       1.388   5.402   1.696  1.00  0.00    +0.120 C 
ATOM      8  C   UNL     1       0.702   3.644   0.118  1.00  0.00    +0.120 C 
BRANCH   4  11
ATOM      9 CL   UNL     1       3.051   1.441   1.371  1.00  0.00    -0.080 Cl
ATOM     10 CL   UNL     1       5.977   1.232   0.067  1.00  0.00    -0.082 Cl
ATOM     11  C   UNL     1       3.056   4.033   0.488  1.00  0.00    +0.050 A 
ATOM     12  C   UNL     1       3.768   2.806   0.558  1.00  0.00    +0.080 A 
ATOM     13  C   UNL     1       3.688   5.122  -0.137  1.00  0.00    +0.025 A 
ATOM     14  C   UNL     1       5.057   2.697   0.010  1.00  0.00    +0.061 A 
ATOM     15  C   UNL     1       4.970   5.009  -0.678  1.00  0.00    +0.003 A 
ATOM     16  C   UNL     1       5.652   3.800  -0.605  1.00  0.00    +0.021 A 
ENDBRANCH   4  11
ENDBRANCH   2   3
ENDBRANCH   1   2
BRANCH   1  17
ATOM     17  C   UNL     1      -4.019   4.888   0.861  1.00  0.00    +0.042 C 
BRANCH  17  18
ATOM     18  C   UNL     1      -4.407   5.804   2.020  1.00  0.00    +0.229 C 
BRANCH  18  19
ATOM     19  O   UNL     1      -5.608   5.280   2.594  1.00  0.00    -0.492 OA
BRANCH  19  25
ATOM     20  O   UNL     1     -11.744   6.683   5.674  1.00  0.00    -0.275 OA
ATOM     21  N   UNL     1      -9.711   6.241   4.777  1.00  0.00    -0.285 N 
ATOM     22  C   UNL     1      -7.755   7.534   5.365  1.00  0.00    -0.025 A 
ATOM     23  C   UNL     1      -8.572   8.245   6.407  1.00  0.00    +0.046 C 
ATOM     24  C   UNL     1      -8.353   6.524   4.605  1.00  0.00    +0.040 A 
ATOM     25  C   UNL     1      -6.241   6.067   3.516  1.00  0.00    +0.122 A 
ATOM     26  C   UNL     1     -10.031   8.340   5.990  1.00  0.00    +0.101 C 
ATOM     27  C   UNL     1      -7.597   5.786   3.695  1.00  0.00    +0.069 A 
ATOM     28  C   UNL     1      -6.389   7.789   5.212  1.00  0.00    +0.009 A 
ATOM     29  C   UNL     1      -5.634   7.064   4.283  1.00  0.00    +0.046 A 
ATOM     30  C   UNL     1     -10.570   7.011   5.515  1.00  0.00    +0.218 C 
ATOM     31  H   UNL     1     -10.117   5.419   4.342  1.00  0.00    +0.155 HD
ENDBRANCH  19  25
ENDBRANCH  18  19
ENDBRANCH  17  18
ENDBRANCH   1  17
TORSDOF 7
