REMARK  Name = 163091
REMARK  1 active torsions:
REMARK  status: ('A' for Active; 'I' for Inactive)
REMARK    1  A    between atoms: N_3  and  C_10
REMARK                            x       y       z     vdW  Elec       q    Type
REMARK                         _______ _______ _______ _____ _____    ______ ____
ROOT
ATOM      1 CL   UNL     1      -0.067  -5.412  -1.221  1.00  0.00    -0.084 Cl
ATOM      2  O   UNL     1       1.574  -0.426   1.430  1.00  0.00    -0.455 OA
ATOM      3  N   UNL     1      -2.807   0.932  -0.501  1.00  0.00    -0.304 NA
ATOM      4  C   UNL     1      -0.770  -0.309  -0.527  1.00  0.00    +0.045 C 
ATOM      5  C   UNL     1      -0.532   0.982   0.265  1.00  0.00    +0.045 C 
ATOM      6  C   UNL     1      -2.289  -0.440  -0.353  1.00  0.00    +0.093 C 
ATOM      7  C   UNL     1      -1.698   1.859  -0.205  1.00  0.00    +0.093 C 
ATOM      8  C   UNL     1       0.022  -1.540  -0.134  1.00  0.00    +0.001 A 
ATOM      9  C   UNL     1       0.882   1.465   0.101  1.00  0.00    -0.000 A 
ATOM     10  C   UNL     1      -3.974   1.165   0.340  1.00  0.00    +0.104 C 
ATOM     11  C   UNL     1       1.114  -1.533   0.751  1.00  0.00    +0.132 A 
ATOM     12  C   UNL     1       1.893   0.671   0.663  1.00  0.00    +0.132 A 
ATOM     13  C   UNL     1      -0.315  -2.765  -0.749  1.00  0.00    +0.027 A 
ATOM     14  C   UNL     1       1.253   2.627  -0.584  1.00  0.00    +0.007 A 
ATOM     15  C   UNL     1       1.788  -2.724   1.065  1.00  0.00    +0.048 A 
ATOM     16  C   UNL     1       3.237   1.031   0.569  1.00  0.00    +0.046 A 
ATOM     17  C   UNL     1       0.377  -3.940  -0.450  1.00  0.00    +0.041 A 
ATOM     18  C   UNL     1       2.602   2.982  -0.696  1.00  0.00    +0.001 A 
ATOM     19  C   UNL     1       1.423  -3.927   0.463  1.00  0.00    +0.023 A 
ATOM     20  C   UNL     1       3.592   2.185  -0.123  1.00  0.00    +0.004 A 
ENDROOT
TORSDOF 0
