REMARK  Name = 11978813
REMARK  7 active torsions:
REMARK  status: ('A' for Active; 'I' for Inactive)
REMARK    1  A    between atoms: O_2  and  C_17
REMARK    2  A    between atoms: O_2  and  C_23
REMARK    3  A    between atoms: N_4  and  C_11
REMARK    4  A    between atoms: N_5  and  C_13
REMARK    5  A    between atoms: C_11  and  C_12
REMARK    6  A    between atoms: C_12  and  C_14
REMARK    7  A    between atoms: C_14  and  C_17
REMARK                            x       y       z     vdW  Elec       q    Type
REMARK                         _______ _______ _______ _____ _____    ______ ____
ROOT
ATOM      1  C   UNL     1      -1.955  -6.034  -0.169  1.00  0.00    +0.084 C 
ENDROOT
BRANCH   1   2
ATOM      2  N   UNL     1      -2.612  -4.944   0.563  1.00  0.00    -0.299 NA
ATOM      3  N   UNL     1      -5.474  -4.863  -0.178  1.00  0.00    -0.327 N 
ATOM      4  C   UNL     1      -3.703  -5.458   1.433  1.00  0.00    +0.103 C 
ATOM      5  C   UNL     1      -3.189  -3.909  -0.331  1.00  0.00    +0.103 C 
ATOM      6  C   UNL     1      -4.970  -5.940   0.681  1.00  0.00    +0.120 C 
ATOM      7  C   UNL     1      -4.464  -4.322  -1.110  1.00  0.00    +0.120 C 
BRANCH   3   9
ATOM      8  S   UNL     1      -9.647  -7.445  -1.770  1.00  0.00    -0.097 S 
ATOM      9  C   UNL     1      -6.787  -4.918  -0.690  1.00  0.00    +0.038 A 
ATOM     10  C   UNL     1      -7.555  -6.093  -0.995  1.00  0.00    +0.010 A 
ATOM     11  C   UNL     1      -7.423  -3.664  -0.880  1.00  0.00    +0.024 A 
ATOM     12  C   UNL     1      -8.872  -5.935  -1.457  1.00  0.00    +0.021 A 
ATOM     13  C   UNL     1      -7.233  -7.501  -0.958  1.00  0.00    +0.018 A 
ATOM     14  C   UNL     1      -8.726  -3.537  -1.339  1.00  0.00    +0.003 A 
ATOM     15  C   UNL     1      -9.466  -4.672  -1.634  1.00  0.00    +0.016 A 
ATOM     16  C   UNL     1      -8.264  -8.327  -1.337  1.00  0.00    +0.046 A 
ENDBRANCH   3   9
ENDBRANCH   1   2
BRANCH   1  17
ATOM     17  C   UNL     1      -0.678  -5.617  -0.914  1.00  0.00    +0.019 C 
BRANCH  17  18
ATOM     18  C   UNL     1       0.349  -4.834  -0.093  1.00  0.00    +0.042 C 
BRANCH  18  19
ATOM     19  C   UNL     1       0.755  -5.516   1.212  1.00  0.00    +0.229 C 
BRANCH  19  20
ATOM     20  O   UNL     1       1.898  -4.823   1.724  1.00  0.00    -0.492 OA
BRANCH  20  23
ATOM     21  O   UNL     1       8.000  -5.307   5.169  1.00  0.00    -0.268 OA
ATOM     22  N   UNL     1       6.005  -5.172   4.084  1.00  0.00    -0.322 N 
ATOM     23  C   UNL     1       2.564  -5.426   2.755  1.00  0.00    +0.122 A 
ATOM     24  C   UNL     1       3.890  -5.017   2.917  1.00  0.00    +0.072 A 
ATOM     25  C   UNL     1       4.668  -5.568   3.933  1.00  0.00    +0.053 A 
ATOM     26  C   UNL     1       2.017  -6.363   3.635  1.00  0.00    +0.046 A 
ATOM     27  C   UNL     1       4.130  -6.518   4.810  1.00  0.00    -0.001 A 
ATOM     28  C   UNL     1       2.797  -6.908   4.661  1.00  0.00    +0.013 A 
ATOM     29  C   UNL     1       4.982  -7.078   5.861  1.00  0.00    +0.015 A 
ATOM     30  C   UNL     1       6.833  -5.666   5.054  1.00  0.00    +0.249 A 
ATOM     31  C   UNL     1       6.255  -6.676   5.976  1.00  0.00    +0.071 A 
ATOM     32  H   UNL     1       6.407  -4.485   3.461  1.00  0.00    +0.169 HD
ENDBRANCH  20  23
ENDBRANCH  19  20
ENDBRANCH  18  19
ENDBRANCH  17  18
ENDBRANCH   1  17
TORSDOF 7
