REMARK  Name = 11154555
REMARK  7 active torsions:
REMARK  status: ('A' for Active; 'I' for Inactive)
REMARK    1  A    between atoms: N_4  and  C_15
REMARK    2  A    between atoms: N_5  and  C_11
REMARK    3  A    between atoms: N_6  and  C_21
REMARK    4  A    between atoms: N_7  and  C_24
REMARK    5  A    between atoms: N_7  and  C_25
REMARK    6  A    between atoms: C_8  and  C_14
REMARK    7  A    between atoms: C_14  and  C_15
REMARK                            x       y       z     vdW  Elec       q    Type
REMARK                         _______ _______ _______ _____ _____    ______ ____
ROOT
ATOM      1  C   UNL     1      -2.102   6.195   0.071  1.00  0.00    +0.085 C 
ENDROOT
BRANCH   1   2
ATOM      2  N   UNL     1      -1.566   6.989  -1.053  1.00  0.00    -0.299 NA
ATOM      3  N   UNL     1      -1.551   9.849  -0.250  1.00  0.00    -0.326 N 
ATOM      4  C   UNL     1      -0.332   7.717  -0.650  1.00  0.00    +0.103 C 
ATOM      5  C   UNL     1      -2.513   8.002  -1.586  1.00  0.00    +0.103 C 
ATOM      6  C   UNL     1      -0.551   8.918   0.310  1.00  0.00    +0.120 C 
ATOM      7  C   UNL     1      -2.820   9.174  -0.622  1.00  0.00    +0.120 C 
BRANCH   3  10
ATOM      8 CL   UNL     1      -2.205  12.150  -2.121  1.00  0.00    -0.080 Cl
ATOM      9 CL   UNL     1      -2.878  14.888  -0.594  1.00  0.00    -0.082 Cl
ATOM     10  C   UNL     1      -1.741  11.099   0.371  1.00  0.00    +0.050 A 
ATOM     11  C   UNL     1      -2.122  12.244  -0.381  1.00  0.00    +0.080 A 
ATOM     12  C   UNL     1      -1.576  11.258   1.759  1.00  0.00    +0.025 A 
ATOM     13  C   UNL     1      -2.364  13.472   0.260  1.00  0.00    +0.061 A 
ATOM     14  C   UNL     1      -1.796  12.488   2.388  1.00  0.00    +0.003 A 
ATOM     15  C   UNL     1      -2.197  13.590   1.641  1.00  0.00    +0.021 A 
ENDBRANCH   3  10
ENDBRANCH   1   2
BRANCH   1  16
ATOM     16  C   UNL     1      -3.456   5.523  -0.215  1.00  0.00    +0.019 C 
BRANCH  16  17
ATOM     17  C   UNL     1      -3.969   4.574   0.900  1.00  0.00    -0.010 C 
ATOM     18  C   UNL     1      -5.432   4.198   0.587  1.00  0.00    +0.005 C 
ATOM     19  C   UNL     1      -3.768   5.162   2.308  1.00  0.00    +0.005 C 
ATOM     20  C   UNL     1      -5.988   4.147   3.099  1.00  0.00    +0.074 C 
ATOM     21  C   UNL     1      -6.166   3.501   1.725  1.00  0.00    +0.022 C 
ATOM     22  C   UNL     1      -4.521   4.436   3.414  1.00  0.00    +0.022 C 
BRANCH  20  24
ATOM     23  O   UNL     1      -6.224   6.824   1.875  1.00  0.00    -0.253 OA
ATOM     24  N   UNL     1      -6.904   5.252   3.402  1.00  0.00    -0.296 N 
ATOM     25  N   UNL     1      -7.913   7.336   3.325  1.00  0.00    -0.292 N 
ATOM     26  C   UNL     1      -6.959   6.475   2.792  1.00  0.00    +0.302 C 
ATOM     27  C   UNL     1      -7.920   8.702   2.829  1.00  0.00    +0.133 C 
ATOM     28  C   UNL     1      -9.148   6.895   3.956  1.00  0.00    +0.133 C 
ATOM     29  H   UNL     1      -7.202   5.285   4.364  1.00  0.00    +0.151 HD
ENDBRANCH  20  24
ENDBRANCH  16  17
ENDBRANCH   1  16
TORSDOF 5
