REMARK  Name = 667467
REMARK  5 active torsions:
REMARK  status: ('A' for Active; 'I' for Inactive)
REMARK    1  A    between atoms: N_3  and  C_9
REMARK    2  A    between atoms: N_3  and  C_18
REMARK    3  A    between atoms: N_3  and  C_19
REMARK    4  A    between atoms: C_5  and  C_8
REMARK    5  A    between atoms: C_5  and  C_9
REMARK                            x       y       z     vdW  Elec       q    Type
REMARK                         _______ _______ _______ _____ _____    ______ ____
ROOT
ATOM      1 CL   UNL     1       1.592   0.258  -2.101  1.00  0.00    -0.084 Cl
ATOM      2  S   UNL     1       6.747   0.016   1.516  1.00  0.00    -0.088 S 
ATOM      3  C   UNL     1       5.557  -2.400   0.027  1.00  0.00    -0.012 C 
ATOM      4  C   UNL     1       4.782  -1.141  -0.120  1.00  0.00    -0.002 A 
ATOM      5  C   UNL     1       7.046  -2.341   0.024  1.00  0.00    -0.004 A 
ATOM      6  C   UNL     1       4.985  -3.584   0.347  1.00  0.00    -0.017 C 
ATOM      7  C   UNL     1       5.246   0.019   0.533  1.00  0.00    +0.021 A 
ATOM      8  C   UNL     1       7.682  -1.270   0.683  1.00  0.00    +0.020 A 
ATOM      9  C   UNL     1       3.658  -1.050  -0.956  1.00  0.00    +0.029 A 
ATOM     10  C   UNL     1       7.831  -3.292  -0.649  1.00  0.00    +0.009 A 
ATOM     11  C   UNL     1       4.544   1.224   0.405  1.00  0.00    +0.017 A 
ATOM     12  C   UNL     1       9.080  -1.192   0.699  1.00  0.00    +0.015 A 
ATOM     13  C   UNL     1       2.975   0.159  -1.083  1.00  0.00    +0.042 A 
ATOM     14  C   UNL     1       9.224  -3.202  -0.632  1.00  0.00    +0.001 A 
ATOM     15  C   UNL     1       3.407   1.293  -0.400  1.00  0.00    +0.021 A 
ATOM     16  C   UNL     1       9.848  -2.157   0.046  1.00  0.00    +0.001 A 
ENDROOT
BRANCH   6  17
ATOM     17  C   UNL     1       3.535  -3.905   0.614  1.00  0.00    +0.043 C 
BRANCH  17  18
ATOM     18  C   UNL     1       2.982  -4.898  -0.423  1.00  0.00    +0.088 C 
BRANCH  18  19
ATOM     19  N   UNL     1       1.534  -5.144  -0.290  1.00  0.00    -0.308 NA
ATOM     20  C   UNL     1       1.064  -5.956  -1.415  1.00  0.00    +0.104 C 
ATOM     21  C   UNL     1       1.196  -5.805   0.971  1.00  0.00    +0.104 C 
ENDBRANCH  18  19
ENDBRANCH  17  18
ENDBRANCH   6  17
TORSDOF 3
