REMARK  Name = 2726
REMARK  6 active torsions:
REMARK  status: ('A' for Active; 'I' for Inactive)
REMARK    1  A    between atoms: N_3  and  C_5
REMARK    2  A    between atoms: N_4  and  C_7
REMARK    3  A    between atoms: N_4  and  C_16
REMARK    4  A    between atoms: N_4  and  C_17
REMARK    5  A    between atoms: C_5  and  C_6
REMARK    6  A    between atoms: C_6  and  C_7
REMARK                            x       y       z     vdW  Elec       q    Type
REMARK                         _______ _______ _______ _____ _____    ______ ____
ROOT
ATOM      1 CL   UNL     1       1.736   1.347  -0.272  1.00  0.00    -0.083 Cl
ATOM      2  S   UNL     1       7.935   0.393  -0.138  1.00  0.00    -0.086 S 
ATOM      3  N   UNL     1       5.777  -1.906  -0.278  1.00  0.00    -0.298 N 
ATOM      4  C   UNL     1       5.290  -0.565  -0.250  1.00  0.00    +0.049 A 
ATOM      5  C   UNL     1       7.128  -2.300  -0.034  1.00  0.00    +0.048 A 
ATOM      6  C   UNL     1       6.165   0.538  -0.159  1.00  0.00    +0.034 A 
ATOM      7  C   UNL     1       8.168  -1.354   0.077  1.00  0.00    +0.034 A 
ATOM      8  C   UNL     1       3.910  -0.261  -0.286  1.00  0.00    +0.044 A 
ATOM      9  C   UNL     1       7.506  -3.653   0.135  1.00  0.00    +0.024 A 
ATOM     10  C   UNL     1       5.674   1.859  -0.105  1.00  0.00    +0.018 A 
ATOM     11  C   UNL     1       9.493  -1.754   0.344  1.00  0.00    +0.017 A 
ATOM     12  C   UNL     1       3.432   1.054  -0.232  1.00  0.00    +0.043 A 
ATOM     13  C   UNL     1       8.824  -4.047   0.398  1.00  0.00    +0.002 A 
ATOM     14  C   UNL     1       4.309   2.118  -0.138  1.00  0.00    +0.021 A 
ATOM     15  C   UNL     1       9.822  -3.095   0.505  1.00  0.00    +0.001 A 
ENDROOT
BRANCH   3  16
ATOM     16  C   UNL     1       4.806  -2.987  -0.587  1.00  0.00    +0.112 C 
BRANCH  16  17
ATOM     17  C   UNL     1       4.135  -3.517   0.690  1.00  0.00    +0.035 C 
BRANCH  17  18
ATOM     18  C   UNL     1       3.089  -4.596   0.386  1.00  0.00    +0.085 C 
BRANCH  18  19
ATOM     19  N   UNL     1       3.653  -5.808  -0.231  1.00  0.00    -0.308 NA
ATOM     20  C   UNL     1       4.415  -6.608   0.733  1.00  0.00    +0.104 C 
ATOM     21  C   UNL     1       2.580  -6.632  -0.797  1.00  0.00    +0.104 C 
ENDBRANCH  18  19
ENDBRANCH  17  18
ENDBRANCH  16  17
ENDBRANCH   3  16
TORSDOF 4
