REMARK  Name = 135398737
REMARK  1 active torsions:
REMARK  status: ('A' for Active; 'I' for Inactive)
REMARK    1  A    between atoms: N_3  and  C_12
REMARK                            x       y       z     vdW  Elec       q    Type
REMARK                         _______ _______ _______ _____ _____    ______ ____
ROOT
ATOM      1 CL   UNL     1       4.313  -0.898  -0.275  1.00  0.00    -0.083 Cl
ATOM      2  N   UNL     1      -2.491  -3.242   0.372  1.00  0.00    -0.312 N 
ATOM      3  N   UNL     1      -2.681  -5.096   2.642  1.00  0.00    -0.302 NA
ATOM      4  N   UNL     1      -0.517  -2.072   0.601  1.00  0.00    -0.230 NA
ATOM      5  N   UNL     1      -1.168   0.745   1.341  1.00  0.00    -0.312 N 
ATOM      6  C   UNL     1      -3.749  -3.379   1.140  1.00  0.00    +0.122 C 
ATOM      7  C   UNL     1      -1.705  -4.496   0.420  1.00  0.00    +0.122 C 
ATOM      8  C   UNL     1      -3.474  -3.846   2.591  1.00  0.00    +0.103 C 
ATOM      9  C   UNL     1      -1.423  -4.908   1.880  1.00  0.00    +0.103 C 
ATOM     10  C   UNL     1      -1.791  -2.021   0.341  1.00  0.00    +0.131 C 
ATOM     11  C   UNL     1      -2.545  -0.781  -0.046  1.00  0.00    +0.036 A 
ATOM     12  C   UNL     1      -2.403  -5.480   4.023  1.00  0.00    +0.105 C 
ATOM     13  C   UNL     1      -2.290   0.473   0.530  1.00  0.00    +0.042 A 
ATOM     14  C   UNL     1       0.391  -1.014   0.565  1.00  0.00    +0.088 A 
ATOM     15  C   UNL     1       0.132   0.292   1.015  1.00  0.00    +0.057 A 
ATOM     16  C   UNL     1      -3.601  -0.930  -0.964  1.00  0.00    +0.013 A 
ATOM     17  C   UNL     1      -3.170   1.531   0.229  1.00  0.00    +0.024 A 
ATOM     18  C   UNL     1      -4.451   0.130  -1.264  1.00  0.00    +0.001 A 
ATOM     19  C   UNL     1       1.693  -1.368   0.173  1.00  0.00    +0.049 A 
ATOM     20  C   UNL     1      -4.245   1.359  -0.648  1.00  0.00    +0.002 A 
ATOM     21  C   UNL     1       1.204   1.201   1.094  1.00  0.00    +0.027 A 
ATOM     22  C   UNL     1       2.731  -0.446   0.227  1.00  0.00    +0.043 A 
ATOM     23  C   UNL     1       2.495   0.837   0.702  1.00  0.00    +0.022 A 
ATOM     24  H   UNL     1      -1.161   1.690   1.712  1.00  0.00    +0.152 HD
ENDROOT
TORSDOF 0
