REMARK  Name = 3168
REMARK  6 active torsions:
REMARK  status: ('A' for Active; 'I' for Inactive)
REMARK    1  A    between atoms: N_4  and  C_11
REMARK    2  A    between atoms: N_5  and  C_10
REMARK    3  A    between atoms: C_11  and  C_13
REMARK    4  A    between atoms: C_13  and  C_15
REMARK    5  A    between atoms: C_15  and  C_19
REMARK    6  A    between atoms: C_19  and  C_23
REMARK                            x       y       z     vdW  Elec       q    Type
REMARK                         _______ _______ _______ _____ _____    ______ ____
ROOT
ATOM      1  N   UNL     1      -2.859   3.434  -0.083  1.00  0.00    -0.298 NA
ATOM      2  C   UNL     1      -2.125   4.708  -0.028  1.00  0.00    +0.091 C 
ATOM      3  C   UNL     1      -1.953   5.318  -1.427  1.00  0.00    +0.069 C 
ATOM      4  C   UNL     1      -4.202   3.647  -0.638  1.00  0.00    +0.113 C 
ATOM      5  C   UNL     1      -3.247   5.371  -2.218  1.00  0.00    +0.027 C 
ATOM      6  C   UNL     1      -4.255   4.572  -1.823  1.00  0.00    +0.010 C 
ENDROOT
BRANCH   5   8
ATOM      7  O   UNL     1      -0.956   6.552  -3.760  1.00  0.00    -0.246 OA
ATOM      8  N   UNL     1      -3.310   6.236  -3.310  1.00  0.00    -0.265 N 
ATOM      9  N   UNL     1      -2.591   7.557  -5.037  1.00  0.00    -0.306 N 
ATOM     10  C   UNL     1      -4.437   6.797  -3.982  1.00  0.00    +0.074 A 
ATOM     11  C   UNL     1      -2.140   6.749  -3.986  1.00  0.00    +0.332 A 
ATOM     12  C   UNL     1      -3.971   7.589  -5.033  1.00  0.00    +0.067 A 
ATOM     13  C   UNL     1      -5.795   6.743  -3.728  1.00  0.00    +0.028 A 
ATOM     14  C   UNL     1      -4.796   8.299  -5.882  1.00  0.00    +0.028 A 
ATOM     15  C   UNL     1      -6.662   7.450  -4.577  1.00  0.00    +0.002 A 
ATOM     16  C   UNL     1      -6.167   8.217  -5.646  1.00  0.00    +0.002 A 
ATOM     17  H   UNL     1      -1.969   8.037  -5.668  1.00  0.00    +0.170 HD
ENDBRANCH   5   8
BRANCH   1  18
ATOM     18  C   UNL     1      -2.913   2.823   1.258  1.00  0.00    +0.085 C 
BRANCH  18  19
ATOM     19  C   UNL     1      -3.520   1.413   1.302  1.00  0.00    +0.023 C 
BRANCH  19  20
ATOM     20  C   UNL     1      -2.760   0.415   0.427  1.00  0.00    +0.081 C 
BRANCH  20  22
ATOM     21  O   UNL     1      -4.297  -1.264   1.230  1.00  0.00    -0.292 OA
ATOM     22  C   UNL     1      -3.300  -1.000   0.561  1.00  0.00    +0.163 C 
BRANCH  22  24
ATOM     23  F   UNL     1      -0.678  -5.257  -2.017  1.00  0.00    -0.205 F 
ATOM     24  C   UNL     1      -2.584  -2.107  -0.148  1.00  0.00    +0.018 A 
ATOM     25  C   UNL     1      -3.011  -3.426   0.071  1.00  0.00    +0.014 A 
ATOM     26  C   UNL     1      -1.504  -1.868  -1.011  1.00  0.00    +0.014 A 
ATOM     27  C   UNL     1      -2.365  -4.492  -0.559  1.00  0.00    +0.039 A 
ATOM     28  C   UNL     1      -0.863  -2.938  -1.644  1.00  0.00    +0.039 A 
ATOM     29  C   UNL     1      -1.298  -4.237  -1.411  1.00  0.00    +0.123 A 
ENDBRANCH  22  24
ENDBRANCH  20  22
ENDBRANCH  19  20
ENDBRANCH  18  19
ENDBRANCH   1  18
TORSDOF 6
