REMARK  Name = 3372
REMARK  8 active torsions:
REMARK  status: ('A' for Active; 'I' for Inactive)
REMARK    1  A    between atoms: O_5  and  C_17
REMARK    2  A    between atoms: N_6  and  C_13
REMARK    3  A    between atoms: N_7  and  C_15
REMARK    4  A    between atoms: N_8  and  C_16
REMARK    5  A    between atoms: C_13  and  C_14
REMARK    6  A    between atoms: C_14  and  C_16
REMARK    7  A    between atoms: C_15  and  C_17
REMARK    8  A    between atoms: C_24  and  C_30
REMARK                            x       y       z     vdW  Elec       q    Type
REMARK                         _______ _______ _______ _____ _____    ______ ____
ROOT
ATOM      1  S   UNL     1       4.080  -3.124   2.174  1.00  0.00    -0.086 S 
ATOM      2  N   UNL     1       1.294  -2.712   0.786  1.00  0.00    -0.298 N 
ATOM      3  C   UNL     1       1.643  -4.044   1.139  1.00  0.00    +0.048 A 
ATOM      4  C   UNL     1       2.239  -1.655   0.653  1.00  0.00    +0.048 A 
ATOM      5  C   UNL     1       2.875  -4.361   1.738  1.00  0.00    +0.034 A 
ATOM      6  C   UNL     1       3.531  -1.733   1.206  1.00  0.00    +0.034 A 
ATOM      7  C   UNL     1       0.774  -5.110   0.822  1.00  0.00    +0.037 A 
ATOM      8  C   UNL     1       1.917  -0.506  -0.098  1.00  0.00    +0.024 A 
ATOM      9  C   UNL     1       1.084  -6.446   1.130  1.00  0.00    +0.057 A 
ATOM     10  C   UNL     1       3.191  -5.693   2.050  1.00  0.00    +0.017 A 
ATOM     11  C   UNL     1       4.438  -0.672   1.043  1.00  0.00    +0.017 A 
ATOM     12  C   UNL     1       2.303  -6.727   1.753  1.00  0.00    +0.013 A 
ATOM     13  C   UNL     1       2.826   0.543  -0.260  1.00  0.00    +0.002 A 
ATOM     14  C   UNL     1       4.086   0.463   0.316  1.00  0.00    +0.001 A 
ENDROOT
BRANCH   9  18
ATOM     15  F   UNL     1      -1.074  -7.136   0.331  1.00  0.00    -0.166 F 
ATOM     16  F   UNL     1       0.633  -8.372  -0.209  1.00  0.00    -0.166 F 
ATOM     17  F   UNL     1      -0.121  -8.385   1.831  1.00  0.00    -0.166 F 
ATOM     18  C   UNL     1       0.140  -7.568   0.773  1.00  0.00    +0.417 C 
ENDBRANCH   9  18
BRANCH   2  19
ATOM     19  C   UNL     1      -0.041  -2.273   1.274  1.00  0.00    +0.112 C 
BRANCH  19  20
ATOM     20  C   UNL     1      -0.015  -1.884   2.762  1.00  0.00    +0.035 C 
BRANCH  20  21
ATOM     21  C   UNL     1      -1.413  -1.456   3.230  1.00  0.00    +0.086 C 
BRANCH  21  22
ATOM     22  N   UNL     1      -1.406  -0.885   4.587  1.00  0.00    -0.300 NA
ATOM     23  N   UNL     1      -3.639  -2.130   6.228  1.00  0.00    -0.298 NA
ATOM     24  C   UNL     1      -1.163  -1.889   5.644  1.00  0.00    +0.100 C 
ATOM     25  C   UNL     1      -2.677  -0.186   4.878  1.00  0.00    +0.100 C 
ATOM     26  C   UNL     1      -2.361  -2.823   5.944  1.00  0.00    +0.100 C 
ATOM     27  C   UNL     1      -3.877  -1.119   5.173  1.00  0.00    +0.100 C 
BRANCH  23  28
ATOM     28  C   UNL     1      -3.622  -1.539   7.588  1.00  0.00    +0.112 C 
BRANCH  28  29
ATOM     29  C   UNL     1      -5.032  -1.131   8.050  1.00  0.00    +0.171 C 
BRANCH  29  30
ATOM     30  O   UNL     1      -5.946  -2.198   7.805  1.00  0.00    -0.394 OA
ATOM     31  H   UNL     1      -5.599  -2.640   7.002  1.00  0.00    +0.209 HD
ENDBRANCH  29  30
ENDBRANCH  28  29
ENDBRANCH  23  28
ENDBRANCH  21  22
ENDBRANCH  20  21
ENDBRANCH  19  20
ENDBRANCH   2  19
TORSDOF 8
