REMARK  Name = 5281881
REMARK  7 active torsions:
REMARK  status: ('A' for Active; 'I' for Inactive)
REMARK    1  A    between atoms: O_5  and  C_15
REMARK    2  A    between atoms: N_6  and  C_12
REMARK    3  A    between atoms: N_7  and  C_13
REMARK    4  A    between atoms: C_12  and  C_14
REMARK    5  A    between atoms: C_13  and  C_15
REMARK    6  A    between atoms: C_14  and  C_16
REMARK    7  A    between atoms: C_24  and  C_30
REMARK                            x       y       z     vdW  Elec       q    Type
REMARK                         _______ _______ _______ _____ _____    ______ ____
ROOT
ATOM      1  S   UNL     1      -1.749   0.192   2.211  1.00  0.00    -0.088 S 
ATOM      2  C   UNL     1       0.307   2.604  -0.526  1.00  0.00    -0.017 C 
ATOM      3  C   UNL     1      -0.053   1.384  -0.056  1.00  0.00    -0.012 C 
ATOM      4  C   UNL     1       0.724   0.688   1.001  1.00  0.00    -0.003 A 
ATOM      5  C   UNL     1      -1.359   0.829  -0.494  1.00  0.00    -0.004 A 
ATOM      6  C   UNL     1       0.037   0.125   2.087  1.00  0.00    +0.020 A 
ATOM      7  C   UNL     1      -2.205   0.261   0.477  1.00  0.00    +0.020 A 
ATOM      8  C   UNL     1       2.119   0.521   0.915  1.00  0.00    +0.022 A 
ATOM      9  C   UNL     1      -1.744   0.811  -1.844  1.00  0.00    +0.009 A 
ATOM     10  C   UNL     1       2.839  -0.133   1.929  1.00  0.00    +0.055 A 
ATOM     11  C   UNL     1       0.749  -0.520   3.103  1.00  0.00    +0.016 A 
ATOM     12  C   UNL     1      -3.446  -0.263   0.094  1.00  0.00    +0.015 A 
ATOM     13  C   UNL     1       2.139  -0.640   3.030  1.00  0.00    +0.013 A 
ATOM     14  C   UNL     1      -2.975   0.265  -2.216  1.00  0.00    +0.001 A 
ATOM     15  C   UNL     1      -3.827  -0.257  -1.247  1.00  0.00    +0.001 A 
ENDROOT
BRANCH  10  19
ATOM     16  F   UNL     1       4.847   0.062   0.620  1.00  0.00    -0.166 F 
ATOM     17  F   UNL     1       4.989   0.520   2.741  1.00  0.00    -0.166 F 
ATOM     18  F   UNL     1       4.767  -1.543   2.086  1.00  0.00    -0.166 F 
ATOM     19  C   UNL     1       4.341  -0.271   1.842  1.00  0.00    +0.417 C 
ENDBRANCH  10  19
BRANCH   2  20
ATOM     20  C   UNL     1       1.496   3.423  -0.089  1.00  0.00    +0.043 C 
BRANCH  20  21
ATOM     21  C   UNL     1       1.352   4.920  -0.403  1.00  0.00    +0.088 C 
BRANCH  21  22
ATOM     22  N   UNL     1       2.454   5.806  -0.015  1.00  0.00    -0.300 NA
ATOM     23  N   UNL     1       4.662   5.104   1.926  1.00  0.00    -0.298 NA
ATOM     24  C   UNL     1       3.790   5.370  -0.452  1.00  0.00    +0.100 C 
ATOM     25  C   UNL     1       2.433   6.220   1.395  1.00  0.00    +0.100 C 
ATOM     26  C   UNL     1       4.604   4.536   0.567  1.00  0.00    +0.100 C 
ATOM     27  C   UNL     1       3.284   5.382   2.378  1.00  0.00    +0.100 C 
BRANCH  23  28
ATOM     28  C   UNL     1       5.523   6.300   1.963  1.00  0.00    +0.112 C 
BRANCH  28  29
ATOM     29  C   UNL     1       5.965   6.658   3.387  1.00  0.00    +0.171 C 
BRANCH  29  30
ATOM     30  O   UNL     1       6.804   7.808   3.359  1.00  0.00    -0.394 OA
ATOM     31  H   UNL     1       7.019   8.019   4.285  1.00  0.00    +0.209 HD
ENDBRANCH  29  30
ENDBRANCH  28  29
ENDBRANCH  23  28
ENDBRANCH  21  22
ENDBRANCH  20  21
ENDBRANCH   2  20
TORSDOF 7
