REMARK  Name = 3559
REMARK  7 active torsions:
REMARK  status: ('A' for Active; 'I' for Inactive)
REMARK    1  A    between atoms: O_3  and  C_6
REMARK    2  A    between atoms: N_5  and  C_11
REMARK    3  A    between atoms: C_6  and  C_12
REMARK    4  A    between atoms: C_11  and  C_13
REMARK    5  A    between atoms: C_13  and  C_16
REMARK    6  A    between atoms: C_16  and  C_19
REMARK    7  A    between atoms: C_19  and  C_21
REMARK                            x       y       z     vdW  Elec       q    Type
REMARK                         _______ _______ _______ _____ _____    ______ ____
ROOT
ATOM      1  N   UNL     1       5.944  -0.596  -1.076  1.00  0.00    -0.302 NA
ATOM      2  C   UNL     1       3.385   0.272   0.098  1.00  0.00    +0.093 C 
ATOM      3  C   UNL     1       4.027   0.980  -1.108  1.00  0.00    +0.055 C 
ATOM      4  C   UNL     1       3.917  -1.165   0.228  1.00  0.00    +0.055 C 
ATOM      5  C   UNL     1       5.548   0.821  -1.133  1.00  0.00    +0.087 C 
ATOM      6  C   UNL     1       5.443  -1.233   0.152  1.00  0.00    +0.087 C 
ENDROOT
BRANCH   2   8
ATOM      7 CL   UNL     1      -2.677   0.178  -0.328  1.00  0.00    -0.084 Cl
ATOM      8  C   UNL     1       1.853   0.262  -0.009  1.00  0.00    -0.016 A 
ATOM      9  C   UNL     1       1.041   0.796   1.008  1.00  0.00    +0.008 A 
ATOM     10  C   UNL     1       1.210  -0.306  -1.126  1.00  0.00    +0.008 A 
ATOM     11  C   UNL     1      -0.354   0.771   0.911  1.00  0.00    +0.020 A 
ATOM     12  C   UNL     1      -0.184  -0.330  -1.227  1.00  0.00    +0.020 A 
ATOM     13  C   UNL     1      -0.961   0.209  -0.207  1.00  0.00    +0.041 A 
ENDBRANCH   2   8
BRANCH   2  14
ATOM     14  O   UNL     1       3.744   1.000   1.286  1.00  0.00    -0.384 OA
ATOM     15  H   UNL     1       4.708   0.994   1.380  1.00  0.00    +0.211 HD
ENDBRANCH   2  14
BRANCH   1  16
ATOM     16  C   UNL     1       7.411  -0.709  -1.194  1.00  0.00    +0.085 C 
BRANCH  16  17
ATOM     17  C   UNL     1       7.927  -2.141  -1.387  1.00  0.00    +0.023 C 
BRANCH  17  18
ATOM     18  C   UNL     1       7.278  -2.851  -2.577  1.00  0.00    +0.081 C 
BRANCH  18  20
ATOM     19  O   UNL     1       8.790  -4.674  -2.126  1.00  0.00    -0.292 OA
ATOM     20  C   UNL     1       7.860  -4.236  -2.800  1.00  0.00    +0.163 C 
BRANCH  20  22
ATOM     21  F   UNL     1       5.762  -7.565  -6.821  1.00  0.00    -0.205 F 
ATOM     22  C   UNL     1       7.277  -5.092  -3.880  1.00  0.00    +0.018 A 
ATOM     23  C   UNL     1       7.786  -6.390  -4.050  1.00  0.00    +0.014 A 
ATOM     24  C   UNL     1       6.248  -4.643  -4.720  1.00  0.00    +0.014 A 
ATOM     25  C   UNL     1       7.274  -7.226  -5.044  1.00  0.00    +0.039 A 
ATOM     26  C   UNL     1       5.738  -5.483  -5.714  1.00  0.00    +0.039 A 
ATOM     27  C   UNL     1       6.255  -6.765  -5.868  1.00  0.00    +0.123 A 
ENDBRANCH  20  22
ENDBRANCH  18  20
ENDBRANCH  17  18
ENDBRANCH  16  17
ENDBRANCH   1  16
TORSDOF 7
