REMARK  Name = 71360
REMARK  10 active torsions:
REMARK  status: ('A' for Active; 'I' for Inactive)
REMARK    1  A    between atoms: O_3  and  C_18
REMARK    2  A    between atoms: O_3  and  C_23
REMARK    3  A    between atoms: O_4  and  C_24
REMARK    4  A    between atoms: O_4  and  C_30
REMARK    5  A    between atoms: N_6  and  C_13
REMARK    6  A    between atoms: C_8  and  C_14
REMARK    7  A    between atoms: C_13  and  C_15
REMARK    8  A    between atoms: C_15  and  C_18
REMARK    9  A    between atoms: C_28  and  C_29
REMARK   10  A    between atoms: C_29  and  C_31
REMARK                            x       y       z     vdW  Elec       q    Type
REMARK                         _______ _______ _______ _____ _____    ______ ____
ROOT
ATOM      1  N   UNL     1       3.686   3.940  -1.275  1.00  0.00    -0.302 NA
ATOM      2  C   UNL     1       5.446   1.581  -0.823  1.00  0.00    +0.044 C 
ATOM      3  C   UNL     1       3.920   1.498  -0.815  1.00  0.00    +0.025 C 
ATOM      4  C   UNL     1       5.899   3.018  -0.556  1.00  0.00    +0.025 C 
ATOM      5  C   UNL     1       3.253   2.588  -1.656  1.00  0.00    +0.085 C 
ATOM      6  C   UNL     1       5.157   4.051  -1.405  1.00  0.00    +0.085 C 
ENDROOT
BRANCH   2  10
ATOM      7  F   UNL     1       9.318  -3.193  -3.548  1.00  0.00    -0.205 F 
ATOM      8  O   UNL     1       6.533   0.658  -4.155  1.00  0.00    -0.354 OA
ATOM      9  N   UNL     1       5.837   1.465  -3.274  1.00  0.00    -0.082 NA
ATOM     10  C   UNL     1       6.066   0.967  -2.050  1.00  0.00    +0.094 A 
ATOM     11  C   UNL     1       6.917  -0.171  -2.114  1.00  0.00    +0.045 A 
ATOM     12  C   UNL     1       7.177  -0.318  -3.466  1.00  0.00    +0.170 A 
ATOM     13  C   UNL     1       7.488  -1.087  -1.211  1.00  0.00    +0.016 A 
ATOM     14  C   UNL     1       7.975  -1.317  -4.012  1.00  0.00    +0.088 A 
ATOM     15  C   UNL     1       8.305  -2.102  -1.724  1.00  0.00    +0.039 A 
ATOM     16  C   UNL     1       8.535  -2.204  -3.096  1.00  0.00    +0.127 A 
ENDBRANCH   2  10
BRANCH   1  17
ATOM     17  C   UNL     1       3.067   4.993  -2.111  1.00  0.00    +0.087 C 
BRANCH  17  18
ATOM     18  C   UNL     1       1.561   5.253  -1.941  1.00  0.00    +0.056 C 
BRANCH  18  19
ATOM     19  C   UNL     1       0.659   4.250  -2.655  1.00  0.00    +0.230 C 
BRANCH  19  20
ATOM     20  O   UNL     1      -0.632   4.834  -2.849  1.00  0.00    -0.488 OA
BRANCH  20  21
ATOM     21  C   UNL     1      -1.604   4.049  -3.415  1.00  0.00    +0.162 A 
ATOM     22  C   UNL     1      -2.884   4.600  -3.597  1.00  0.00    +0.162 A 
ATOM     23  C   UNL     1      -1.376   2.730  -3.840  1.00  0.00    +0.050 A 
ATOM     24  C   UNL     1      -3.892   3.841  -4.219  1.00  0.00    +0.060 A 
ATOM     25  C   UNL     1      -2.392   1.973  -4.432  1.00  0.00    +0.015 A 
ATOM     26  C   UNL     1      -3.654   2.528  -4.636  1.00  0.00    +0.021 A 
BRANCH  26  28
ATOM     27  O   UNL     1      -4.445   0.541  -5.636  1.00  0.00    -0.292 OA
ATOM     28  C   UNL     1      -4.700   1.697  -5.301  1.00  0.00    +0.160 C 
ATOM     29  C   UNL     1      -6.058   2.298  -5.550  1.00  0.00    +0.091 C 
ENDBRANCH  26  28
BRANCH  22  30
ATOM     30  O   UNL     1      -3.322   5.857  -3.261  1.00  0.00    -0.491 OA
ATOM     31  C   UNL     1      -2.555   6.621  -2.340  1.00  0.00    +0.277 C 
ENDBRANCH  22  30
ENDBRANCH  20  21
ENDBRANCH  19  20
ENDBRANCH  18  19
ENDBRANCH  17  18
ENDBRANCH   1  17
TORSDOF 8
