REMARK  Name = 72287
REMARK  9 active torsions:
REMARK  status: ('A' for Active; 'I' for Inactive)
REMARK    1  A    between atoms: O_2  and  C_19
REMARK    2  A    between atoms: O_2  and  C_23
REMARK    3  A    between atoms: N_3  and  C_6
REMARK    4  A    between atoms: N_4  and  C_7
REMARK    5  A    between atoms: N_4  and  C_15
REMARK    6  A    between atoms: N_4  and  C_16
REMARK    7  A    between atoms: C_5  and  C_6
REMARK    8  A    between atoms: C_5  and  C_7
REMARK    9  A    between atoms: C_5  and  C_8
REMARK                            x       y       z     vdW  Elec       q    Type
REMARK                         _______ _______ _______ _____ _____    ______ ____
ROOT
ATOM      1  S   UNL     1       0.195   2.025  -0.320  1.00  0.00    -0.086 S 
ATOM      2  N   UNL     1      -0.027  -1.054   0.205  1.00  0.00    -0.298 N 
ATOM      3  C   UNL     1       1.284  -0.540   0.007  1.00  0.00    +0.051 A 
ATOM      4  C   UNL     1      -1.212  -0.402  -0.226  1.00  0.00    +0.048 A 
ATOM      5  C   UNL     1       1.506   0.821  -0.278  1.00  0.00    +0.034 A 
ATOM      6  C   UNL     1      -1.234   0.979  -0.513  1.00  0.00    +0.034 A 
ATOM      7  C   UNL     1       2.416  -1.382   0.037  1.00  0.00    +0.070 A 
ATOM      8  C   UNL     1      -2.406  -1.118  -0.452  1.00  0.00    +0.024 A 
ATOM      9  C   UNL     1       2.808   1.301  -0.492  1.00  0.00    +0.020 A 
ATOM     10  C   UNL     1      -2.417   1.608  -0.939  1.00  0.00    +0.017 A 
ATOM     11  C   UNL     1       3.714  -0.905  -0.186  1.00  0.00    +0.122 A 
ATOM     12  C   UNL     1      -3.579  -0.488  -0.882  1.00  0.00    +0.002 A 
ATOM     13  C   UNL     1       3.907   0.445  -0.445  1.00  0.00    +0.047 A 
ATOM     14  C   UNL     1      -3.588   0.879  -1.116  1.00  0.00    +0.001 A 
ENDROOT
BRANCH  11  15
ATOM     15  O   UNL     1       4.692  -1.859  -0.123  1.00  0.00    -0.495 OA
ATOM     16  C   UNL     1       6.015  -1.443  -0.440  1.00  0.00    +0.277 C 
ENDBRANCH  11  15
BRANCH   2  17
ATOM     17  C   UNL     1      -0.175  -2.149   1.197  1.00  0.00    +0.115 C 
BRANCH  17  18
ATOM     18  C   UNL     1       0.220  -1.731   2.636  1.00  0.00    +0.018 C 
ATOM     19  C   UNL     1       0.193  -2.973   3.539  1.00  0.00    +0.010 C 
BRANCH  18  20
ATOM     20  C   UNL     1      -0.722  -0.628   3.168  1.00  0.00    +0.088 C 
BRANCH  20  21
ATOM     21  N   UNL     1      -0.482  -0.248   4.575  1.00  0.00    -0.308 NA
ATOM     22  C   UNL     1       0.799   0.444   4.736  1.00  0.00    +0.104 C 
ATOM     23  C   UNL     1      -1.572   0.608   5.051  1.00  0.00    +0.104 C 
ENDBRANCH  20  21
ENDBRANCH  18  20
ENDBRANCH  17  18
ENDBRANCH   2  17
TORSDOF 5
