REMARK  Name = 3964
REMARK  1 active torsions:
REMARK  status: ('A' for Active; 'I' for Inactive)
REMARK    1  A    between atoms: N_4  and  C_11
REMARK                            x       y       z     vdW  Elec       q    Type
REMARK                         _______ _______ _______ _____ _____    ______ ____
ROOT
ATOM      1 CL   UNL     1      -4.402   0.824   0.437  1.00  0.00    -0.084 Cl
ATOM      2  O   UNL     1       1.426   0.880   1.169  1.00  0.00    -0.453 OA
ATOM      3  N   UNL     1      -0.571  -2.729   1.643  1.00  0.00    -0.312 N 
ATOM      4  N   UNL     1      -1.782  -4.896   3.188  1.00  0.00    -0.302 NA
ATOM      5  N   UNL     1       1.247  -1.946   0.413  1.00  0.00    -0.228 NA
ATOM      6  C   UNL     1      -0.138  -4.123   1.430  1.00  0.00    +0.122 C 
ATOM      7  C   UNL     1      -1.004  -2.517   3.041  1.00  0.00    +0.122 C 
ATOM      8  C   UNL     1      -1.280  -5.096   1.809  1.00  0.00    +0.103 C 
ATOM      9  C   UNL     1      -2.157  -3.481   3.387  1.00  0.00    +0.103 C 
ATOM     10  C   UNL     1       0.090  -1.703   0.965  1.00  0.00    +0.133 C 
ATOM     11  C   UNL     1      -2.913  -5.777   3.470  1.00  0.00    +0.105 C 
ATOM     12  C   UNL     1      -0.616  -0.389   0.871  1.00  0.00    +0.058 A 
ATOM     13  C   UNL     1       0.066   0.817   0.999  1.00  0.00    +0.139 A 
ATOM     14  C   UNL     1       2.002  -0.988  -0.278  1.00  0.00    +0.108 A 
ATOM     15  C   UNL     1      -2.007  -0.386   0.688  1.00  0.00    +0.035 A 
ATOM     16  C   UNL     1       2.127   0.354   0.109  1.00  0.00    +0.154 A 
ATOM     17  C   UNL     1      -0.632   2.026   0.994  1.00  0.00    +0.048 A 
ATOM     18  C   UNL     1      -2.696   0.823   0.658  1.00  0.00    +0.042 A 
ATOM     19  C   UNL     1      -2.017   2.028   0.816  1.00  0.00    +0.023 A 
ATOM     20  C   UNL     1       2.766  -1.429  -1.366  1.00  0.00    +0.031 A 
ATOM     21  C   UNL     1       3.002   1.221  -0.554  1.00  0.00    +0.048 A 
ATOM     22  C   UNL     1       3.629  -0.563  -2.046  1.00  0.00    +0.002 A 
ATOM     23  C   UNL     1       3.750   0.763  -1.636  1.00  0.00    +0.004 A 
ENDROOT
TORSDOF 0
