REMARK  Name = 213046
REMARK  4 active torsions:
REMARK  status: ('A' for Active; 'I' for Inactive)
REMARK    1  A    between atoms: N_4  and  C_17
REMARK    2  A    between atoms: N_5  and  C_23
REMARK    3  A    between atoms: C_17  and  C_18
REMARK    4  A    between atoms: C_19  and  C_23
REMARK                            x       y       z     vdW  Elec       q    Type
REMARK                         _______ _______ _______ _____ _____    ______ ____
ROOT
ATOM      1  C   UNL     1       0.085  -4.046   0.491  1.00  0.00    +0.011 C 
ATOM      2  C   UNL     1       1.420  -4.800   0.741  1.00  0.00    +0.008 C 
ATOM      3  C   UNL     1       0.310  -2.705  -0.232  1.00  0.00    +0.005 C 
ATOM      4  C   UNL     1       2.389  -3.876   1.523  1.00  0.00    +0.005 C 
ATOM      5  C   UNL     1       1.278  -1.818   0.554  1.00  0.00    +0.000 C 
ATOM      6  C   UNL     1       2.600  -2.525   0.834  1.00  0.00    +0.000 C 
ENDROOT
BRANCH   1   7
ATOM      7  C   UNL     1      -1.091  -4.842  -0.096  1.00  0.00    +0.120 C 
BRANCH   7  10
ATOM      8  O   UNL     1       1.060  -5.287  -2.234  1.00  0.00    -0.275 OA
ATOM      9  O   UNL     1      -3.397  -5.881  -1.320  1.00  0.00    -0.275 OA
ATOM     10  N   UNL     1      -1.126  -5.393  -1.441  1.00  0.00    -0.241 N 
ATOM     11  C   UNL     1      -0.095  -8.097  -3.247  1.00  0.00    +0.002 C 
ATOM     12  C   UNL     1      -2.286  -8.247  -2.890  1.00  0.00    +0.002 C 
ATOM     13  C   UNL     1      -0.568  -6.629  -3.362  1.00  0.00    +0.091 C 
ATOM     14  C   UNL     1      -2.069  -6.737  -3.128  1.00  0.00    +0.091 C 
ATOM     15  C   UNL     1      -1.007  -8.680  -2.165  1.00  0.00    +0.008 C 
ATOM     16  C   UNL     1      -0.607  -8.872  -4.484  1.00  0.00    +0.004 C 
ATOM     17  C   UNL     1      -2.124  -8.971  -4.234  1.00  0.00    +0.004 C 
ATOM     18  C   UNL     1      -0.092  -5.698  -2.274  1.00  0.00    +0.226 C 
ATOM     19  C   UNL     1      -2.308  -5.944  -1.877  1.00  0.00    +0.226 C 
ENDBRANCH   7  10
ENDBRANCH   1   7
BRANCH   2  20
ATOM     20  C   UNL     1       1.257  -6.150   1.501  1.00  0.00    +0.088 C 
BRANCH  20  22
ATOM     21  S   UNL     1       5.706 -11.877   2.025  1.00  0.00    +0.014 S 
ATOM     22  N   UNL     1       1.093  -7.370   0.673  1.00  0.00    -0.299 NA
ATOM     23  N   UNL     1       3.548  -8.839   1.475  1.00  0.00    -0.312 N 
ATOM     24  N   UNL     1       4.319 -11.000   2.032  1.00  0.00    -0.194 NA
ATOM     25  C   UNL     1       1.031  -8.571   1.553  1.00  0.00    +0.103 C 
ATOM     26  C   UNL     1       2.238  -7.618  -0.242  1.00  0.00    +0.103 C 
ATOM     27  C   UNL     1       2.335  -8.925   2.312  1.00  0.00    +0.122 C 
ATOM     28  C   UNL     1       3.595  -7.778   0.466  1.00  0.00    +0.122 C 
ATOM     29  C   UNL     1       4.560  -9.745   1.640  1.00  0.00    +0.138 A 
ATOM     30  C   UNL     1       5.979  -9.440   1.419  1.00  0.00    +0.031 A 
ATOM     31  C   UNL     1       6.743 -10.603   1.549  1.00  0.00    +0.041 A 
ATOM     32  C   UNL     1       6.685  -8.239   1.133  1.00  0.00    +0.012 A 
ATOM     33  C   UNL     1       8.130 -10.637   1.325  1.00  0.00    +0.017 A 
ATOM     34  C   UNL     1       8.072  -8.254   0.930  1.00  0.00    +0.001 A 
ATOM     35  C   UNL     1       8.779  -9.445   1.008  1.00  0.00    +0.001 A 
ENDBRANCH  20  22
ENDBRANCH   2  20
TORSDOF 4
