REMARK  Name = 23897
REMARK  5 active torsions:
REMARK  status: ('A' for Active; 'I' for Inactive)
REMARK    1  A    between atoms: N_3  and  C_7
REMARK    2  A    between atoms: C_5  and  C_7
REMARK    3  A    between atoms: C_12  and  C_18
REMARK    4  A    between atoms: C_15  and  C_19
REMARK    5  A    between atoms: C_18  and  C_20
REMARK                            x       y       z     vdW  Elec       q    Type
REMARK                         _______ _______ _______ _____ _____    ______ ____
ROOT
ATOM      1  O   UNL     1       0.364   2.284  -3.507  1.00  0.00    -0.292 OA
ATOM      2  N   UNL     1       3.409   0.337  -0.699  1.00  0.00    -0.361 N 
ATOM      3  C   UNL     1      -0.129  -0.019  -2.953  1.00  0.00    +0.075 C 
ATOM      4  C   UNL     1       0.823  -1.241  -2.945  1.00  0.00    +0.019 C 
ATOM      5  C   UNL     1       1.770  -1.292  -1.732  1.00  0.00    +0.054 C 
ATOM      6  C   UNL     1       1.839   1.257  -1.980  1.00  0.00    +0.042 A 
ATOM      7  C   UNL     1       2.325   0.064  -1.482  1.00  0.00    +0.027 A 
ATOM      8  C   UNL     1       0.678   1.286  -2.867  1.00  0.00    +0.169 C 
ATOM      9  C   UNL     1       2.661   2.303  -1.464  1.00  0.00    -0.017 A 
ATOM     10  C   UNL     1       3.625   1.694  -0.669  1.00  0.00    +0.017 A 
ATOM     11  C   UNL     1       4.733   2.290   0.123  1.00  0.00    +0.063 C 
ATOM     12  H   UNL     1       3.971  -0.350  -0.209  1.00  0.00    +0.165 HD
ENDROOT
BRANCH   9  13
ATOM     13  C   UNL     1       2.489   3.773  -1.700  1.00  0.00    +0.034 C 
ATOM     14  C   UNL     1       1.427   4.376  -0.790  1.00  0.00    +0.009 C 
ENDBRANCH   9  13
BRANCH   3  15
ATOM     15  C   UNL     1      -1.177  -0.076  -1.821  1.00  0.00    +0.096 C 
BRANCH  15  17
ATOM     16  O   UNL     1      -4.599   2.477  -1.577  1.00  0.00    -0.377 OA
ATOM     17  N   UNL     1      -2.048   1.105  -1.758  1.00  0.00    -0.297 NA
ATOM     18  C   UNL     1      -2.970   1.212  -2.908  1.00  0.00    +0.112 C 
ATOM     19  C   UNL     1      -2.837   1.142  -0.511  1.00  0.00    +0.112 C 
ATOM     20  C   UNL     1      -3.846   2.472  -2.798  1.00  0.00    +0.175 C 
ATOM     21  C   UNL     1      -3.710   2.407  -0.453  1.00  0.00    +0.175 C 
ENDBRANCH  15  17
ENDBRANCH   3  15
TORSDOF 3
