REMARK  Name = 135398745
REMARK  2 active torsions:
REMARK  status: ('A' for Active; 'I' for Inactive)
REMARK    1  A    between atoms: N_3  and  C_12
REMARK    2  A    between atoms: C_17  and  C_20
REMARK                            x       y       z     vdW  Elec       q    Type
REMARK                         _______ _______ _______ _____ _____    ______ ____
ROOT
ATOM      1  S   UNL     1      -2.350  -1.318   0.187  1.00  0.00    -0.078 S 
ATOM      2  N   UNL     1      -0.889   3.309   0.324  1.00  0.00    -0.312 N 
ATOM      3  N   UNL     1      -1.779   5.996   1.108  1.00  0.00    -0.302 NA
ATOM      4  N   UNL     1       1.034   1.977   0.146  1.00  0.00    -0.230 NA
ATOM      5  N   UNL     1       0.181  -0.890   0.827  1.00  0.00    -0.307 N 
ATOM      6  C   UNL     1      -1.611   3.537   1.599  1.00  0.00    +0.122 C 
ATOM      7  C   UNL     1      -0.115   4.510  -0.057  1.00  0.00    +0.122 C 
ATOM      8  C   UNL     1      -2.523   4.778   1.492  1.00  0.00    +0.103 C 
ATOM      9  C   UNL     1      -1.038   5.744  -0.147  1.00  0.00    +0.103 C 
ATOM     10  C   UNL     1      -0.256   2.077   0.169  1.00  0.00    +0.132 C 
ATOM     11  C   UNL     1      -1.207   0.983   0.007  1.00  0.00    +0.044 A 
ATOM     12  C   UNL     1      -2.685   7.131   0.955  1.00  0.00    +0.105 C 
ATOM     13  C   UNL     1      -0.960  -0.326   0.366  1.00  0.00    +0.080 A 
ATOM     14  C   UNL     1      -2.546   1.117  -0.522  1.00  0.00    +0.024 A 
ATOM     15  C   UNL     1       1.805   0.815  -0.009  1.00  0.00    +0.087 A 
ATOM     16  C   UNL     1       1.460  -0.499   0.363  1.00  0.00    +0.057 A 
ATOM     17  C   UNL     1      -3.270  -0.052  -0.482  1.00  0.00    -0.011 A 
ATOM     18  C   UNL     1       3.107   1.054  -0.488  1.00  0.00    +0.030 A 
ATOM     19  C   UNL     1       2.442  -1.512   0.273  1.00  0.00    +0.025 A 
ATOM     20  C   UNL     1      -4.672  -0.293  -0.921  1.00  0.00    +0.051 C 
ATOM     21  C   UNL     1       4.057   0.038  -0.598  1.00  0.00    +0.002 A 
ATOM     22  C   UNL     1       3.725  -1.250  -0.209  1.00  0.00    +0.002 A 
ATOM     23  H   UNL     1       0.122  -1.886   1.007  1.00  0.00    +0.153 HD
ENDROOT
TORSDOF 0
