REMARK  Name = 115237
REMARK  6 active torsions:
REMARK  status: ('A' for Active; 'I' for Inactive)
REMARK    1  A    between atoms: O_3  and  C_19
REMARK    2  A    between atoms: N_5  and  C_14
REMARK    3  A    between atoms: C_9  and  C_15
REMARK    4  A    between atoms: C_14  and  C_16
REMARK    5  A    between atoms: C_16  and  C_17
REMARK    6  A    between atoms: C_25  and  C_28
REMARK                            x       y       z     vdW  Elec       q    Type
REMARK                         _______ _______ _______ _____ _____    ______ ____
ROOT
ATOM      1  N   UNL     1       3.575   4.543  -0.932  1.00  0.00    -0.302 NA
ATOM      2  C   UNL     1       4.715   2.108   0.257  1.00  0.00    +0.044 C 
ATOM      3  C   UNL     1       3.712   2.075  -0.905  1.00  0.00    +0.025 C 
ATOM      4  C   UNL     1       4.706   3.470   0.963  1.00  0.00    +0.025 C 
ATOM      5  C   UNL     1       3.719   3.341  -1.767  1.00  0.00    +0.085 C 
ATOM      6  C   UNL     1       4.717   4.647  -0.013  1.00  0.00    +0.085 C 
ENDROOT
BRANCH   2  10
ATOM      7  F   UNL     1      10.450  -0.894   2.059  1.00  0.00    -0.205 F 
ATOM      8  O   UNL     1       7.886   1.336  -1.323  1.00  0.00    -0.354 OA
ATOM      9  N   UNL     1       6.614   1.881  -1.335  1.00  0.00    -0.082 NA
ATOM     10  C   UNL     1       6.107   1.668  -0.112  1.00  0.00    +0.094 A 
ATOM     11  C   UNL     1       7.044   0.994   0.720  1.00  0.00    +0.045 A 
ATOM     12  C   UNL     1       8.144   0.809  -0.099  1.00  0.00    +0.170 A 
ATOM     13  C   UNL     1       7.097   0.525   2.045  1.00  0.00    +0.016 A 
ATOM     14  C   UNL     1       9.320   0.178   0.293  1.00  0.00    +0.088 A 
ATOM     15  C   UNL     1       8.269  -0.112   2.477  1.00  0.00    +0.039 A 
ATOM     16  C   UNL     1       9.348  -0.277   1.609  1.00  0.00    +0.127 A 
ENDBRANCH   2  10
BRANCH   1  17
ATOM     17  C   UNL     1       3.434   5.774  -1.738  1.00  0.00    +0.089 C 
BRANCH  17  18
ATOM     18  C   UNL     1       2.046   5.883  -2.396  1.00  0.00    +0.058 C 
BRANCH  18  22
ATOM     19  O   UNL     1       1.220   8.128  -0.951  1.00  0.00    -0.267 OA
ATOM     20  N   UNL     1       1.024   9.519  -2.771  1.00  0.00    -0.294 N 
ATOM     21  N   UNL     1       1.498   8.690  -4.921  1.00  0.00    -0.236 NA
ATOM     22  C   UNL     1       1.798   7.221  -3.053  1.00  0.00    +0.039 A 
ATOM     23  C   UNL     1       0.453  10.558  -1.919  1.00  0.00    +0.127 C 
ATOM     24  C   UNL     1       0.648  10.947  -4.808  1.00  0.00    +0.180 C 
ATOM     25  C   UNL     1       0.420  11.940  -2.551  1.00  0.00    +0.025 C 
ATOM     26  C   UNL     1      -0.211  11.833  -3.925  1.00  0.00    +0.041 C 
ATOM     27  C   UNL     1       1.069   9.629  -4.136  1.00  0.00    +0.141 A 
ATOM     28  C   UNL     1       1.330   8.317  -2.163  1.00  0.00    +0.258 A 
ATOM     29  C   UNL     1       1.879   7.493  -4.368  1.00  0.00    +0.049 A 
ATOM     30  C   UNL     1       2.393   6.502  -5.383  1.00  0.00    +0.066 C 
BRANCH  24  31
ATOM     31  O   UNL     1      -0.080  10.669  -6.001  1.00  0.00    -0.384 OA
ATOM     32  H   UNL     1       0.359   9.887  -6.393  1.00  0.00    +0.210 HD
ENDBRANCH  24  31
ENDBRANCH  18  22
ENDBRANCH  17  18
ENDBRANCH   1  17
TORSDOF 5
