REMARK  Name = 4748
REMARK  7 active torsions:
REMARK  status: ('A' for Active; 'I' for Inactive)
REMARK    1  A    between atoms: O_3  and  C_15
REMARK    2  A    between atoms: N_4  and  C_11
REMARK    3  A    between atoms: N_5  and  C_13
REMARK    4  A    between atoms: N_6  and  C_14
REMARK    5  A    between atoms: C_11  and  C_12
REMARK    6  A    between atoms: C_12  and  C_14
REMARK    7  A    between atoms: C_13  and  C_15
REMARK                            x       y       z     vdW  Elec       q    Type
REMARK                         _______ _______ _______ _____ _____    ______ ____
ROOT
ATOM      1 CL   UNL     1       2.705  -8.493   1.275  1.00  0.00    -0.083 Cl
ATOM      2  S   UNL     1       0.809  -3.478  -2.008  1.00  0.00    -0.086 S 
ATOM      3  N   UNL     1       3.714  -3.975  -0.995  1.00  0.00    -0.298 N 
ATOM      4  C   UNL     1       2.762  -4.971  -0.659  1.00  0.00    +0.049 A 
ATOM      5  C   UNL     1       3.585  -3.105  -2.109  1.00  0.00    +0.048 A 
ATOM      6  C   UNL     1       1.419  -4.872  -1.078  1.00  0.00    +0.034 A 
ATOM      7  C   UNL     1       2.326  -2.820  -2.676  1.00  0.00    +0.034 A 
ATOM      8  C   UNL     1       3.136  -6.119   0.063  1.00  0.00    +0.044 A 
ATOM      9  C   UNL     1       4.718  -2.553  -2.737  1.00  0.00    +0.024 A 
ATOM     10  C   UNL     1       0.485  -5.864  -0.733  1.00  0.00    +0.018 A 
ATOM     11  C   UNL     1       2.219  -1.961  -3.783  1.00  0.00    +0.017 A 
ATOM     12  C   UNL     1       2.203  -7.105   0.391  1.00  0.00    +0.043 A 
ATOM     13  C   UNL     1       4.607  -1.712  -3.850  1.00  0.00    +0.002 A 
ATOM     14  C   UNL     1       0.876  -6.978   0.004  1.00  0.00    +0.021 A 
ATOM     15  C   UNL     1       3.355  -1.408  -4.366  1.00  0.00    +0.001 A 
ENDROOT
BRANCH   3  16
ATOM     16  C   UNL     1       4.744  -3.626   0.016  1.00  0.00    +0.112 C 
BRANCH  16  17
ATOM     17  C   UNL     1       4.174  -3.238   1.391  1.00  0.00    +0.035 C 
BRANCH  17  18
ATOM     18  C   UNL     1       3.108  -2.130   1.404  1.00  0.00    +0.086 C 
BRANCH  18  19
ATOM     19  N   UNL     1       3.635  -0.805   1.788  1.00  0.00    -0.300 NA
ATOM     20  N   UNL     1       2.279   1.325   0.088  1.00  0.00    -0.298 NA
ATOM     21  C   UNL     1       2.541   0.066   2.284  1.00  0.00    +0.100 C 
ATOM     22  C   UNL     1       4.310  -0.109   0.673  1.00  0.00    +0.100 C 
ATOM     23  C   UNL     1       1.593   0.610   1.187  1.00  0.00    +0.100 C 
ATOM     24  C   UNL     1       3.372   0.470  -0.417  1.00  0.00    +0.100 C 
BRANCH  20  25
ATOM     25  C   UNL     1       2.731   2.655   0.522  1.00  0.00    +0.112 C 
BRANCH  25  26
ATOM     26  C   UNL     1       3.171   3.566  -0.635  1.00  0.00    +0.171 C 
BRANCH  26  27
ATOM     27  O   UNL     1       3.401   4.894  -0.168  1.00  0.00    -0.394 OA
ATOM     28  H   UNL     1       4.116   4.853   0.490  1.00  0.00    +0.209 HD
ENDBRANCH  26  27
ENDBRANCH  25  26
ENDBRANCH  20  25
ENDBRANCH  18  19
ENDBRANCH  17  18
ENDBRANCH  16  17
ENDBRANCH   3  16
TORSDOF 7
