REMARK  Name = 10071196
REMARK  11 active torsions:
REMARK  status: ('A' for Active; 'I' for Inactive)
REMARK    1  A    between atoms: O_3  and  C_26
REMARK    2  A    between atoms: O_3  and  C_29
REMARK    3  A    between atoms: N_4  and  C_13
REMARK    4  A    between atoms: N_5  and  C_7
REMARK    5  A    between atoms: N_5  and  C_12
REMARK    6  A    between atoms: N_6  and  C_16
REMARK    7  A    between atoms: C_12  and  C_15
REMARK    8  A    between atoms: C_16  and  C_19
REMARK    9  A    between atoms: C_25  and  C_29
REMARK   10  A    between atoms: C_25  and  C_30
REMARK   11  A    between atoms: C_25  and  C_31
REMARK                            x       y       z     vdW  Elec       q    Type
REMARK                         _______ _______ _______ _____ _____    ______ ____
ROOT
ATOM      1  O   UNL     1      -2.672   0.887  -2.700  1.00  0.00    -0.253 OA
ATOM      2  N   UNL     1      -3.897  -0.291  -1.146  1.00  0.00    -0.278 N 
ATOM      3  N   UNL     1      -4.389  -0.387  -3.414  1.00  0.00    -0.295 N 
ATOM      4  C   UNL     1      -3.598   0.119  -2.435  1.00  0.00    +0.303 C 
ATOM      5  H   UNL     1      -5.336  -0.533  -3.130  1.00  0.00    +0.151 HD
ENDROOT
BRANCH   2   7
ATOM      6  N   UNL     1      -7.424  -2.393  -1.763  1.00  0.00    -0.305 NA
ATOM      7  C   UNL     1      -4.958  -1.242  -0.698  1.00  0.00    +0.080 C 
ATOM      8  C   UNL     1      -4.980  -2.617  -1.392  1.00  0.00    +0.038 C 
ATOM      9  C   UNL     1      -6.330  -0.571  -0.523  1.00  0.00    +0.038 C 
ATOM     10  C   UNL     1      -6.161  -2.877  -2.327  1.00  0.00    +0.086 C 
ATOM     11  C   UNL     1      -7.385  -0.945  -1.557  1.00  0.00    +0.086 C 
ATOM     12  C   UNL     1      -8.539  -2.751  -2.643  1.00  0.00    +0.104 C 
ENDBRANCH   2   7
BRANCH   2  13
ATOM     13  C   UNL     1      -3.111   0.348  -0.083  1.00  0.00    +0.144 C 
BRANCH  13  15
ATOM     14  F   UNL     1       1.349  -2.687   1.592  1.00  0.00    -0.205 F 
ATOM     15  C   UNL     1      -1.925  -0.484   0.356  1.00  0.00    -0.030 A 
ATOM     16  C   UNL     1      -0.740  -0.492  -0.400  1.00  0.00    +0.008 A 
ATOM     17  C   UNL     1      -1.983  -1.249   1.532  1.00  0.00    +0.008 A 
ATOM     18  C   UNL     1       0.366  -1.235   0.015  1.00  0.00    +0.038 A 
ATOM     19  C   UNL     1      -0.877  -1.994   1.945  1.00  0.00    +0.038 A 
ATOM     20  C   UNL     1       0.285  -1.978   1.186  1.00  0.00    +0.123 A 
ENDBRANCH  13  15
ENDBRANCH   2  13
BRANCH   3  21
ATOM     21  C   UNL     1      -4.226   0.003  -4.797  1.00  0.00    +0.141 C 
BRANCH  21  22
ATOM     22  C   UNL     1      -5.179   1.118  -5.138  1.00  0.00    -0.030 A 
ATOM     23  C   UNL     1      -4.795   2.449  -4.940  1.00  0.00    +0.009 A 
ATOM     24  C   UNL     1      -6.479   0.846  -5.586  1.00  0.00    +0.009 A 
ATOM     25  C   UNL     1      -6.967   3.225  -5.681  1.00  0.00    +0.121 A 
ATOM     26  C   UNL     1      -5.680   3.494  -5.213  1.00  0.00    +0.046 A 
ATOM     27  C   UNL     1      -7.361   1.896  -5.857  1.00  0.00    +0.046 A 
BRANCH  25  28
ATOM     28  O   UNL     1      -7.918   4.162  -5.977  1.00  0.00    -0.492 OA
BRANCH  28  29
ATOM     29  C   UNL     1      -7.509   5.530  -5.915  1.00  0.00    +0.232 C 
BRANCH  29  30
ATOM     30  C   UNL     1      -8.673   6.424  -6.364  1.00  0.00    +0.020 C 
ATOM     31  C   UNL     1      -9.859   6.312  -5.405  1.00  0.00    +0.010 C 
ATOM     32  C   UNL     1      -8.212   7.875  -6.469  1.00  0.00    +0.010 C 
ENDBRANCH  29  30
ENDBRANCH  28  29
ENDBRANCH  25  28
ENDBRANCH  21  22
ENDBRANCH   3  21
TORSDOF 8
