REMARK  Name = 4927
REMARK  6 active torsions:
REMARK  status: ('A' for Active; 'I' for Inactive)
REMARK    1  A    between atoms: N_2  and  C_5
REMARK    2  A    between atoms: N_3  and  C_4
REMARK    3  A    between atoms: N_3  and  C_11
REMARK    4  A    between atoms: N_3  and  C_12
REMARK    5  A    between atoms: C_4  and  C_5
REMARK    6  A    between atoms: C_4  and  C_8
REMARK                            x       y       z     vdW  Elec       q    Type
REMARK                         _______ _______ _______ _____ _____    ______ ____
ROOT
ATOM      1  S   UNL     1      -0.071   1.584  -0.332  1.00  0.00    -0.086 S 
ATOM      2  N   UNL     1      -0.310  -1.488   0.287  1.00  0.00    -0.297 N 
ATOM      3  C   UNL     1       0.998  -0.930   0.313  1.00  0.00    +0.048 A 
ATOM      4  C   UNL     1      -1.419  -0.875  -0.356  1.00  0.00    +0.048 A 
ATOM      5  C   UNL     1       1.236   0.430   0.033  1.00  0.00    +0.034 A 
ATOM      6  C   UNL     1      -1.420   0.486  -0.716  1.00  0.00    +0.034 A 
ATOM      7  C   UNL     1       2.114  -1.748   0.585  1.00  0.00    +0.024 A 
ATOM      8  C   UNL     1      -2.536  -1.649  -0.733  1.00  0.00    +0.024 A 
ATOM      9  C   UNL     1       2.543   0.943   0.073  1.00  0.00    +0.017 A 
ATOM     10  C   UNL     1      -2.522   1.043  -1.387  1.00  0.00    +0.017 A 
ATOM     11  C   UNL     1       3.412  -1.232   0.618  1.00  0.00    +0.002 A 
ATOM     12  C   UNL     1      -3.627  -1.090  -1.403  1.00  0.00    +0.002 A 
ATOM     13  C   UNL     1       3.626   0.117   0.367  1.00  0.00    +0.001 A 
ATOM     14  C   UNL     1      -3.622   0.259  -1.728  1.00  0.00    +0.001 A 
ENDROOT
BRANCH   2  15
ATOM     15  C   UNL     1      -0.660  -2.301   1.490  1.00  0.00    +0.129 C 
BRANCH  15  16
ATOM     16  C   UNL     1      -0.594  -1.507   2.840  1.00  0.00    +0.071 C 
ATOM     17  C   UNL     1      -0.806  -2.485   4.007  1.00  0.00    +0.026 C 
BRANCH  16  18
ATOM     18  N   UNL     1      -1.491  -0.331   2.877  1.00  0.00    -0.304 NA
ATOM     19  C   UNL     1      -2.911  -0.625   3.022  1.00  0.00    +0.104 C 
ATOM     20  C   UNL     1      -1.057   0.681   3.834  1.00  0.00    +0.104 C 
ENDBRANCH  16  18
ENDBRANCH  15  16
ENDBRANCH   2  15
TORSDOF 3
