REMARK  Name = 5002
REMARK  6 active torsions:
REMARK  status: ('A' for Active; 'I' for Inactive)
REMARK    1  A    between atoms: O_2  and  C_13
REMARK    2  A    between atoms: O_2  and  C_20
REMARK    3  A    between atoms: O_3  and  C_25
REMARK    4  A    between atoms: N_4  and  C_11
REMARK    5  A    between atoms: C_11  and  C_13
REMARK    6  A    between atoms: C_20  and  C_25
REMARK                            x       y       z     vdW  Elec       q    Type
REMARK                         _______ _______ _______ _____ _____    ______ ____
ROOT
ATOM      1  S   UNL     1       2.364   1.405  -1.251  1.00  0.00    -0.087 S 
ATOM      2  N   UNL     1      -3.379   3.718  -3.964  1.00  0.00    -0.297 NA
ATOM      3  N   UNL     1      -1.754   1.844  -2.298  1.00  0.00    -0.312 N 
ATOM      4  N   UNL     1      -0.630   1.673  -0.251  1.00  0.00    -0.231 NA
ATOM      5  C   UNL     1      -3.767   3.344  -2.583  1.00  0.00    +0.103 C 
ATOM      6  C   UNL     1      -2.623   2.582  -4.529  1.00  0.00    +0.103 C 
ATOM      7  C   UNL     1      -2.607   2.886  -1.670  1.00  0.00    +0.122 C 
ATOM      8  C   UNL     1      -1.397   2.146  -3.704  1.00  0.00    +0.122 C 
ATOM      9  C   UNL     1      -0.781   1.239  -1.476  1.00  0.00    +0.130 C 
ATOM     10  C   UNL     1       0.021   0.112  -2.059  1.00  0.00    +0.029 A 
ATOM     11  C   UNL     1       1.421   0.149  -2.099  1.00  0.00    +0.023 A 
ATOM     12  C   UNL     1      -0.676  -0.954  -2.649  1.00  0.00    +0.012 A 
ATOM     13  C   UNL     1       0.324   1.175   0.654  1.00  0.00    +0.080 A 
ATOM     14  C   UNL     1       1.703   1.082   0.384  1.00  0.00    +0.038 A 
ATOM     15  C   UNL     1       2.110  -0.864  -2.778  1.00  0.00    +0.016 A 
ATOM     16  C   UNL     1       0.024  -1.966  -3.305  1.00  0.00    +0.001 A 
ATOM     17  C   UNL     1       1.415  -1.916  -3.380  1.00  0.00    +0.001 A 
ATOM     18  C   UNL     1      -0.129   0.856   1.941  1.00  0.00    +0.029 A 
ATOM     19  C   UNL     1       2.590   0.661   1.386  1.00  0.00    +0.017 A 
ATOM     20  C   UNL     1       0.757   0.437   2.936  1.00  0.00    +0.002 A 
ATOM     21  C   UNL     1       2.117   0.340   2.658  1.00  0.00    +0.001 A 
ENDROOT
BRANCH   2  22
ATOM     22  C   UNL     1      -2.634   4.991  -3.971  1.00  0.00    +0.112 C 
BRANCH  22  23
ATOM     23  C   UNL     1      -2.228   5.479  -5.375  1.00  0.00    +0.175 C 
BRANCH  23  24
ATOM     24  O   UNL     1      -1.737   6.823  -5.408  1.00  0.00    -0.376 OA
BRANCH  24  25
ATOM     25  C   UNL     1      -0.610   7.114  -4.573  1.00  0.00    +0.187 C 
BRANCH  25  26
ATOM     26  C   UNL     1       0.644   6.340  -4.982  1.00  0.00    +0.184 C 
BRANCH  26  27
ATOM     27  O   UNL     1       0.921   6.547  -6.365  1.00  0.00    -0.393 OA
ATOM     28  H   UNL     1       0.056   6.677  -6.801  1.00  0.00    +0.209 HD
ENDBRANCH  26  27
ENDBRANCH  25  26
ENDBRANCH  24  25
ENDBRANCH  23  24
ENDBRANCH  22  23
ENDBRANCH   2  22
TORSDOF 6
