REMARK  Name = 5073
REMARK  5 active torsions:
REMARK  status: ('A' for Active; 'I' for Inactive)
REMARK    1  A    between atoms: N_4  and  C_13
REMARK    2  A    between atoms: C_8  and  C_14
REMARK    3  A    between atoms: C_13  and  C_15
REMARK    4  A    between atoms: C_15  and  C_16
REMARK    5  A    between atoms: C_24  and  C_27
REMARK                            x       y       z     vdW  Elec       q    Type
REMARK                         _______ _______ _______ _____ _____    ______ ____
ROOT
ATOM      1  N   UNL     1       3.489   4.443  -1.335  1.00  0.00    -0.302 NA
ATOM      2  C   UNL     1       4.742   1.866  -0.752  1.00  0.00    +0.044 C 
ATOM      3  C   UNL     1       4.064   2.103  -2.109  1.00  0.00    +0.025 C 
ATOM      4  C   UNL     1       5.183   3.188  -0.097  1.00  0.00    +0.025 C 
ATOM      5  C   UNL     1       3.035   3.237  -2.047  1.00  0.00    +0.085 C 
ATOM      6  C   UNL     1       4.910   4.401  -0.984  1.00  0.00    +0.085 C 
ENDROOT
BRANCH   2  10
ATOM      7  F   UNL     1       7.635  -3.942   1.056  1.00  0.00    -0.205 F 
ATOM      8  O   UNL     1       7.812   0.111  -1.492  1.00  0.00    -0.354 OA
ATOM      9  N   UNL     1       6.943   1.179  -1.630  1.00  0.00    -0.082 NA
ATOM     10  C   UNL     1       5.882   0.893  -0.859  1.00  0.00    +0.094 A 
ATOM     11  C   UNL     1       6.040  -0.359  -0.206  1.00  0.00    +0.045 A 
ATOM     12  C   UNL     1       7.278  -0.803  -0.640  1.00  0.00    +0.170 A 
ATOM     13  C   UNL     1       5.309  -1.163   0.688  1.00  0.00    +0.016 A 
ATOM     14  C   UNL     1       7.870  -2.000  -0.251  1.00  0.00    +0.088 A 
ATOM     15  C   UNL     1       5.874  -2.378   1.101  1.00  0.00    +0.039 A 
ATOM     16  C   UNL     1       7.128  -2.775   0.636  1.00  0.00    +0.127 A 
ENDBRANCH   2  10
BRANCH   1  17
ATOM     17  C   UNL     1       3.153   5.687  -2.052  1.00  0.00    +0.089 C 
BRANCH  17  18
ATOM     18  C   UNL     1       1.638   5.958  -2.068  1.00  0.00    +0.058 C 
BRANCH  18  22
ATOM     19  O   UNL     1       1.538   6.455  -4.810  1.00  0.00    -0.267 OA
ATOM     20  N   UNL     1       0.815   8.633  -4.623  1.00  0.00    -0.296 N 
ATOM     21  N   UNL     1       0.779   9.648  -2.503  1.00  0.00    -0.238 NA
ATOM     22  C   UNL     1       1.320   7.321  -2.629  1.00  0.00    +0.039 A 
ATOM     23  C   UNL     1       0.832   8.764  -6.076  1.00  0.00    +0.126 C 
ATOM     24  C   UNL     1       0.110   9.989  -6.610  1.00  0.00    +0.022 C 
ATOM     25  C   UNL     1       0.652   9.710  -3.789  1.00  0.00    +0.113 A 
ATOM     26  C   UNL     1       0.567  11.214  -5.843  1.00  0.00    +0.009 C 
ATOM     27  C   UNL     1       0.215  11.040  -4.379  1.00  0.00    +0.074 C 
ATOM     28  C   UNL     1       1.226   7.417  -4.110  1.00  0.00    +0.258 A 
ATOM     29  C   UNL     1       1.105   8.447  -1.926  1.00  0.00    +0.049 A 
ATOM     30  C   UNL     1       1.226   8.519  -0.424  1.00  0.00    +0.066 C 
ENDBRANCH  18  22
ENDBRANCH  17  18
ENDBRANCH   1  17
TORSDOF 4
