REMARK  Name = 5355
REMARK  9 active torsions:
REMARK  status: ('A' for Active; 'I' for Inactive)
REMARK    1  A    between atoms: S_1  and  N_8
REMARK    2  A    between atoms: S_1  and  C_20
REMARK    3  A    between atoms: O_3  and  C_19
REMARK    4  A    between atoms: O_3  and  C_23
REMARK    5  A    between atoms: N_6  and  C_14
REMARK    6  A    between atoms: N_7  and  C_13
REMARK    7  A    between atoms: C_9  and  C_13
REMARK    8  A    between atoms: C_14  and  C_15
REMARK    9  A    between atoms: C_16  and  C_17
REMARK                            x       y       z     vdW  Elec       q    Type
REMARK                         _______ _______ _______ _____ _____    ______ ____
ROOT
ATOM      1  C   UNL     1       6.765  -2.785  -0.279  1.00  0.00    +0.080 A 
ATOM      2  C   UNL     1       7.671  -3.343   0.631  1.00  0.00    +0.045 A 
ATOM      3  C   UNL     1       7.205  -2.212  -1.478  1.00  0.00    +0.132 A 
ATOM      4  C   UNL     1       9.032  -3.330   0.326  1.00  0.00    +0.106 A 
ATOM      5  C   UNL     1       8.571  -2.231  -1.782  1.00  0.00    +0.048 A 
ATOM      6  C   UNL     1       9.486  -2.787  -0.880  1.00  0.00    +0.032 A 
ENDROOT
BRANCH   1   9
ATOM      7  O   UNL     1       4.750  -1.747   0.323  1.00  0.00    -0.270 OA
ATOM      8  N   UNL     1       4.772  -4.049   0.133  1.00  0.00    -0.310 N 
ATOM      9  C   UNL     1       5.331  -2.793   0.072  1.00  0.00    +0.248 C 
ATOM     10  H   UNL     1       5.328  -4.856  -0.118  1.00  0.00    +0.149 HD
BRANCH   8  11
ATOM     11  C   UNL     1       3.383  -4.253   0.506  1.00  0.00    +0.123 C 
BRANCH  11  13
ATOM     12  N   UNL     1       1.778  -4.376   2.550  1.00  0.00    -0.298 NA
ATOM     13  C   UNL     1       3.158  -4.181   2.030  1.00  0.00    +0.074 C 
ATOM     14  C   UNL     1       3.999  -5.201   2.802  1.00  0.00    +0.022 C 
ATOM     15  C   UNL     1       3.275  -5.377   4.129  1.00  0.00    +0.017 C 
ATOM     16  C   UNL     1       1.993  -4.567   3.995  1.00  0.00    +0.085 C 
BRANCH  12  17
ATOM     17  C   UNL     1       1.053  -5.494   1.930  1.00  0.00    +0.081 C 
ATOM     18  C   UNL     1      -0.414  -5.541   2.350  1.00  0.00    +0.020 C 
ENDBRANCH  12  17
ENDBRANCH  11  13
ENDBRANCH   8  11
ENDBRANCH   1   9
BRANCH   4  19
ATOM     19  S   UNL     1      10.178  -4.086   1.440  1.00  0.00    +0.056 S 
ATOM     20  O   UNL     1       9.468  -5.038   2.262  1.00  0.00    -0.153 OA
ATOM     21  O   UNL     1      11.380  -4.429   0.719  1.00  0.00    -0.153 OA
BRANCH  19  22
ATOM     22  N   UNL     1      10.580  -2.806   2.444  1.00  0.00    -0.204 NA
ATOM     23  H   UNL     1      10.285  -3.004   3.401  1.00  0.00    +0.144 HD
ATOM     24  H   UNL     1      11.575  -2.593   2.359  1.00  0.00    +0.144 HD
ENDBRANCH  19  22
ENDBRANCH   4  19
BRANCH   3  25
ATOM     25  O   UNL     1       6.267  -1.758  -2.366  1.00  0.00    -0.494 OA
ATOM     26  C   UNL     1       6.581  -0.499  -2.955  1.00  0.00    +0.277 C 
ENDBRANCH   3  25
TORSDOF 7
