REMARK  Name = 5452
REMARK  6 active torsions:
REMARK  status: ('A' for Active; 'I' for Inactive)
REMARK    1  A    between atoms: S_2  and  C_21
REMARK    2  A    between atoms: S_2  and  C_25
REMARK    3  A    between atoms: N_3  and  C_12
REMARK    4  A    between atoms: N_4  and  C_11
REMARK    5  A    between atoms: C_5  and  C_7
REMARK    6  A    between atoms: C_7  and  C_11
REMARK                            x       y       z     vdW  Elec       q    Type
REMARK                         _______ _______ _______ _____ _____    ______ ____
ROOT
ATOM      1  S   UNL     1       0.277   1.696  -0.310  1.00  0.00    -0.086 S 
ATOM      2  N   UNL     1       0.346  -1.411   0.134  1.00  0.00    -0.298 N 
ATOM      3  C   UNL     1       1.603  -0.749   0.042  1.00  0.00    +0.049 A 
ATOM      4  C   UNL     1      -0.879  -0.859  -0.333  1.00  0.00    +0.048 A 
ATOM      5  C   UNL     1       1.702   0.636  -0.184  1.00  0.00    +0.034 A 
ATOM      6  C   UNL     1      -1.027   0.516  -0.597  1.00  0.00    +0.034 A 
ATOM      7  C   UNL     1       2.801  -1.489   0.114  1.00  0.00    +0.039 A 
ATOM      8  C   UNL     1      -1.978  -1.698  -0.609  1.00  0.00    +0.024 A 
ATOM      9  C   UNL     1       2.962   1.250  -0.279  1.00  0.00    +0.018 A 
ATOM     10  C   UNL     1      -2.250   1.022  -1.068  1.00  0.00    +0.017 A 
ATOM     11  C   UNL     1       4.055  -0.880   0.000  1.00  0.00    +0.009 A 
ATOM     12  C   UNL     1      -3.190  -1.190  -1.084  1.00  0.00    +0.002 A 
ATOM     13  C   UNL     1       4.132   0.498  -0.181  1.00  0.00    +0.016 A 
ATOM     14  C   UNL     1      -3.329   0.173  -1.307  1.00  0.00    +0.001 A 
ENDROOT
BRANCH  11  15
ATOM     15  S   UNL     1       5.527  -1.879   0.105  1.00  0.00    -0.129 S 
ATOM     16  C   UNL     1       6.119  -1.701  -1.598  1.00  0.00    +0.090 C 
ENDBRANCH  11  15
BRANCH   2  17
ATOM     17  C   UNL     1       0.207  -2.295   1.324  1.00  0.00    +0.112 C 
BRANCH  17  18
ATOM     18  C   UNL     1       0.008  -1.486   2.619  1.00  0.00    +0.038 C 
BRANCH  18  20
ATOM     19  N   UNL     1      -0.674  -1.637   5.073  1.00  0.00    -0.302 NA
ATOM     20  C   UNL     1      -0.314  -2.379   3.844  1.00  0.00    +0.058 C 
ATOM     21  C   UNL     1       0.823  -3.361   4.199  1.00  0.00    +0.019 C 
ATOM     22  C   UNL     1       2.037  -2.659   4.801  1.00  0.00    +0.003 C 
ATOM     23  C   UNL     1       0.446  -0.881   5.645  1.00  0.00    +0.084 C 
ATOM     24  C   UNL     1       1.617  -1.802   5.990  1.00  0.00    +0.015 C 
ATOM     25  C   UNL     1      -1.854  -0.791   4.920  1.00  0.00    +0.105 C 
ENDBRANCH  18  20
ENDBRANCH  17  18
ENDBRANCH   2  17
TORSDOF 4
