REMARK  Name = 5566
REMARK  6 active torsions:
REMARK  status: ('A' for Active; 'I' for Inactive)
REMARK    1  A    between atoms: N_5  and  C_10
REMARK    2  A    between atoms: N_6  and  C_15
REMARK    3  A    between atoms: N_7  and  C_14
REMARK    4  A    between atoms: C_10  and  C_13
REMARK    5  A    between atoms: C_13  and  C_14
REMARK    6  A    between atoms: C_22  and  C_28
REMARK                            x       y       z     vdW  Elec       q    Type
REMARK                         _______ _______ _______ _____ _____    ______ ____
ROOT
ATOM      1  S   UNL     1      -0.414   2.040  -0.328  1.00  0.00    -0.086 S 
ATOM      2  N   UNL     1       0.086  -1.033  -0.028  1.00  0.00    -0.298 N 
ATOM      3  C   UNL     1       1.131  -0.179   0.412  1.00  0.00    +0.048 A 
ATOM      4  C   UNL     1      -0.922  -0.647  -0.951  1.00  0.00    +0.048 A 
ATOM      5  C   UNL     1       1.037   1.222   0.304  1.00  0.00    +0.034 A 
ATOM      6  C   UNL     1      -1.224   0.708  -1.192  1.00  0.00    +0.034 A 
ATOM      7  C   UNL     1       2.326  -0.711   0.939  1.00  0.00    +0.037 A 
ATOM      8  C   UNL     1      -1.610  -1.607  -1.720  1.00  0.00    +0.024 A 
ATOM      9  C   UNL     1       3.379   0.105   1.389  1.00  0.00    +0.057 A 
ATOM     10  C   UNL     1       2.085   2.044   0.748  1.00  0.00    +0.017 A 
ATOM     11  C   UNL     1      -2.221   1.066  -2.115  1.00  0.00    +0.017 A 
ATOM     12  C   UNL     1       3.245   1.492   1.288  1.00  0.00    +0.013 A 
ATOM     13  C   UNL     1      -2.598  -1.246  -2.642  1.00  0.00    +0.002 A 
ATOM     14  C   UNL     1      -2.910   0.093  -2.833  1.00  0.00    +0.001 A 
ENDROOT
BRANCH   9  18
ATOM     15  F   UNL     1       4.581  -1.848   2.105  1.00  0.00    -0.166 F 
ATOM     16  F   UNL     1       5.732  -0.245   1.191  1.00  0.00    -0.166 F 
ATOM     17  F   UNL     1       4.932  -0.004   3.198  1.00  0.00    -0.166 F 
ATOM     18  C   UNL     1       4.639  -0.495   1.962  1.00  0.00    +0.417 C 
ENDBRANCH   9  18
BRANCH   2  19
ATOM     19  C   UNL     1      -0.203  -2.227   0.806  1.00  0.00    +0.112 C 
BRANCH  19  20
ATOM     20  C   UNL     1      -0.535  -1.889   2.269  1.00  0.00    +0.035 C 
BRANCH  20  21
ATOM     21  C   UNL     1      -1.786  -1.012   2.405  1.00  0.00    +0.086 C 
BRANCH  21  22
ATOM     22  N   UNL     1      -2.207  -0.836   3.807  1.00  0.00    -0.300 NA
ATOM     23  N   UNL     1      -3.055   0.890   6.121  1.00  0.00    -0.303 NA
ATOM     24  C   UNL     1      -1.238  -0.035   4.584  1.00  0.00    +0.100 C 
ATOM     25  C   UNL     1      -3.534  -0.182   3.856  1.00  0.00    +0.100 C 
ATOM     26  C   UNL     1      -1.724   0.261   6.023  1.00  0.00    +0.099 C 
ATOM     27  C   UNL     1      -4.007   0.116   5.299  1.00  0.00    +0.099 C 
ATOM     28  C   UNL     1      -3.016   2.295   5.723  1.00  0.00    +0.105 C 
ENDBRANCH  21  22
ENDBRANCH  20  21
ENDBRANCH  19  20
ENDBRANCH   2  19
TORSDOF 5
