REMARK  Name = 60854
REMARK  3 active torsions:
REMARK  status: ('A' for Active; 'I' for Inactive)
REMARK    1  A    between atoms: N_4  and  C_12
REMARK    2  A    between atoms: C_12  and  C_13
REMARK    3  A    between atoms: C_13  and  C_15
REMARK                            x       y       z     vdW  Elec       q    Type
REMARK                         _______ _______ _______ _____ _____    ______ ____
ROOT
ATOM      1  S   UNL     1       0.259  -4.741  -3.064  1.00  0.00    +0.014 S 
ATOM      2  N   UNL     1       0.624   1.743  -1.583  1.00  0.00    -0.299 NA
ATOM      3  N   UNL     1      -0.053  -1.045  -2.341  1.00  0.00    -0.312 N 
ATOM      4  N   UNL     1       0.711  -3.306  -2.389  1.00  0.00    -0.194 NA
ATOM      5  C   UNL     1       0.370   0.658  -0.603  1.00  0.00    +0.103 C 
ATOM      6  C   UNL     1       0.037   1.372  -2.892  1.00  0.00    +0.103 C 
ATOM      7  C   UNL     1       0.676  -0.777  -1.087  1.00  0.00    +0.122 C 
ATOM      8  C   UNL     1       0.315  -0.069  -3.387  1.00  0.00    +0.122 C 
ATOM      9  C   UNL     1      -0.161  -2.358  -2.731  1.00  0.00    +0.138 A 
ATOM     10  C   UNL     1      -1.301  -2.811  -3.518  1.00  0.00    +0.031 A 
ATOM     11  C   UNL     1      -1.180  -4.172  -3.803  1.00  0.00    +0.041 A 
ATOM     12  C   UNL     1      -2.457  -2.141  -3.996  1.00  0.00    +0.012 A 
ATOM     13  C   UNL     1      -2.132  -4.873  -4.565  1.00  0.00    +0.017 A 
ATOM     14  C   UNL     1      -3.418  -2.829  -4.744  1.00  0.00    +0.001 A 
ATOM     15  C   UNL     1      -3.251  -4.177  -5.031  1.00  0.00    +0.001 A 
ENDROOT
BRANCH   2  16
ATOM     16  C   UNL     1       2.048   2.101  -1.658  1.00  0.00    +0.089 C 
BRANCH  16  17
ATOM     17  C   UNL     1       2.255   3.492  -2.290  1.00  0.00    +0.052 C 
BRANCH  17  21
ATOM     18 CL   UNL     1       4.549   2.714  -4.291  1.00  0.00    -0.083 Cl
ATOM     19  O   UNL     1       7.930   7.080   0.640  1.00  0.00    -0.275 OA
ATOM     20  N   UNL     1       7.338   5.665  -1.107  1.00  0.00    -0.285 N 
ATOM     21  C   UNL     1       3.652   4.031  -2.052  1.00  0.00    -0.027 A 
ATOM     22  C   UNL     1       5.127   5.363  -0.703  1.00  0.00    -0.017 A 
ATOM     23  C   UNL     1       3.858   4.865  -0.934  1.00  0.00    +0.011 A 
ATOM     24  C   UNL     1       6.181   5.044  -1.551  1.00  0.00    +0.038 A 
ATOM     25  C   UNL     1       4.744   3.725  -2.902  1.00  0.00    +0.046 A 
ATOM     26  C   UNL     1       5.615   6.277   0.382  1.00  0.00    +0.133 C 
ATOM     27  C   UNL     1       6.025   4.235  -2.654  1.00  0.00    +0.043 A 
ATOM     28  C   UNL     1       7.101   6.421   0.036  1.00  0.00    +0.222 C 
ATOM     29  H   UNL     1       8.249   5.599  -1.536  1.00  0.00    +0.155 HD
ENDBRANCH  17  21
ENDBRANCH  16  17
ENDBRANCH   2  16
TORSDOF 3
