REMARK  Name = 5311507
REMARK  6 active torsions:
REMARK  status: ('A' for Active; 'I' for Inactive)
REMARK    1  A    between atoms: O_3  and  C_13
REMARK    2  A    between atoms: N_4  and  C_10
REMARK    3  A    between atoms: N_5  and  C_11
REMARK    4  A    between atoms: C_10  and  C_12
REMARK    5  A    between atoms: C_11  and  C_13
REMARK    6  A    between atoms: C_12  and  C_14
REMARK                            x       y       z     vdW  Elec       q    Type
REMARK                         _______ _______ _______ _____ _____    ______ ____
ROOT
ATOM      1 CL   UNL     1       1.607   1.488   1.020  1.00  0.00    -0.084 Cl
ATOM      2  S   UNL     1       6.915  -0.068  -1.998  1.00  0.00    -0.088 S 
ATOM      3  C   UNL     1       4.407  -3.150  -0.595  1.00  0.00    -0.017 C 
ATOM      4  C   UNL     1       5.173  -2.050  -0.403  1.00  0.00    -0.012 C 
ATOM      5  C   UNL     1       4.635  -0.666  -0.479  1.00  0.00    -0.002 A 
ATOM      6  C   UNL     1       6.645  -2.248  -0.252  1.00  0.00    -0.004 A 
ATOM      7  C   UNL     1       5.362   0.312  -1.188  1.00  0.00    +0.021 A 
ATOM      8  C   UNL     1       7.521  -1.385  -0.942  1.00  0.00    +0.020 A 
ATOM      9  C   UNL     1       3.482  -0.281   0.223  1.00  0.00    +0.029 A 
ATOM     10  C   UNL     1       7.183  -3.228   0.597  1.00  0.00    +0.009 A 
ATOM     11  C   UNL     1       4.889   1.630  -1.250  1.00  0.00    +0.017 A 
ATOM     12  C   UNL     1       8.906  -1.541  -0.807  1.00  0.00    +0.015 A 
ATOM     13  C   UNL     1       3.027   1.035   0.160  1.00  0.00    +0.042 A 
ATOM     14  C   UNL     1       8.566  -3.373   0.730  1.00  0.00    +0.001 A 
ATOM     15  C   UNL     1       3.719   1.990  -0.581  1.00  0.00    +0.021 A 
ATOM     16  C   UNL     1       9.426  -2.532   0.027  1.00  0.00    +0.001 A 
ENDROOT
BRANCH   3  17
ATOM     17  C   UNL     1       2.934  -3.237  -0.926  1.00  0.00    +0.043 C 
BRANCH  17  18
ATOM     18  C   UNL     1       2.636  -4.378  -1.921  1.00  0.00    +0.088 C 
BRANCH  18  19
ATOM     19  N   UNL     1       1.193  -4.609  -2.108  1.00  0.00    -0.300 NA
ATOM     20  N   UNL     1      -1.238  -5.149  -3.788  1.00  0.00    -0.298 NA
ATOM     21  C   UNL     1       0.545  -3.545  -2.900  1.00  0.00    +0.100 C 
ATOM     22  C   UNL     1       0.958  -5.920  -2.742  1.00  0.00    +0.100 C 
ATOM     23  C   UNL     1      -0.953  -3.836  -3.166  1.00  0.00    +0.100 C 
ATOM     24  C   UNL     1      -0.543  -6.190  -2.999  1.00  0.00    +0.100 C 
BRANCH  20  25
ATOM     25  C   UNL     1      -0.855  -5.159  -5.217  1.00  0.00    +0.112 C 
BRANCH  25  26
ATOM     26  C   UNL     1      -1.464  -6.365  -5.951  1.00  0.00    +0.171 C 
BRANCH  26  27
ATOM     27  O   UNL     1      -2.856  -6.457  -5.651  1.00  0.00    -0.394 OA
ATOM     28  H   UNL     1      -2.933  -6.116  -4.735  1.00  0.00    +0.209 HD
ENDBRANCH  26  27
ENDBRANCH  25  26
ENDBRANCH  20  25
ENDBRANCH  18  19
ENDBRANCH  17  18
ENDBRANCH   3  17
TORSDOF 6
